   * xtb version 6.7.0 (08769fc) compiled by 'albert@albert-system' on 2024-03-04

   ID    Z sym.   atoms
    1    6 C      1-3, 6
    2    8 O      4
    3    7 N      5, 7
    4    1 H      8-15

          program call               : /home/mvotokps/xtb-dist/bin/xtb crest_best.xyz --gfn 2 --alpb toluene --opt vtight -c 0 --iterations 4000
      * Solvation model:               ALPB
        Solvent                        toluene
        Solvent mass                       7.8110E+01 g/mol
          :  Hamiltonian                  GFN2-xTB          :
 * total energy  :   -22.5486590 Eh     change       -0.5371348E-10 Eh
 * total energy  :   -22.5528799 Eh     change       -0.4220924E-02 Eh
 * total energy  :   -22.5539799 Eh     change       -0.1100023E-02 Eh
 * total energy  :   -22.5541540 Eh     change       -0.1740449E-03 Eh
 * total energy  :   -22.5542330 Eh     change       -0.7903013E-04 Eh
 * total energy  :   -22.5542555 Eh     change       -0.2245689E-04 Eh
 * total energy  :   -22.5542660 Eh     change       -0.1051950E-04 Eh
 * total energy  :   -22.5542713 Eh     change       -0.5296632E-05 Eh
 * total energy  :   -22.5542777 Eh     change       -0.6462965E-05 Eh
 * total energy  :   -22.5542843 Eh     change       -0.6570195E-05 Eh
 * total energy  :   -22.5554703 Eh     change       -0.9941004E-05 Eh
 * total energy  :   -22.5554773 Eh     change       -0.7002608E-05 Eh
 * total energy  :   -22.5554821 Eh     change       -0.4871488E-05 Eh
 * total energy  :   -22.5554846 Eh     change       -0.2412942E-05 Eh
 * total energy  :   -22.5554858 Eh     change       -0.1190726E-05 Eh
 * total energy  :   -22.5554861 Eh     change       -0.3276164E-06 Eh
 * total energy  :   -22.5554863 Eh     change       -0.1988776E-06 Eh
 * total energy  :   -22.5554865 Eh     change       -0.1843195E-06 Eh
 * total energy  :   -22.5554865 Eh     change       -0.4702857E-07 Eh
   *** GEOMETRY OPTIMIZATION CONVERGED AFTER 40 ITERATIONS ***

 final structure:
================
15
 xtb: 6.7.0 (08769fc)
C           -2.50525826187615       -0.18251611103230       -0.70550486168451
C           -1.79014630163722       -0.32632401319698        0.64056592806804
C           -0.35884984469800        0.16362852325272        0.53737439821317
O            0.01694999677179        1.22583131487207        0.98491090855910
N            0.46456942680624       -0.70629582419145       -0.13329838954634
C            1.81686697376626       -0.50973955886168       -0.41906814388350
N            2.55560311608899        0.45727245893482       -0.13855325150321
H           -3.53938333495049       -0.50457222115253       -0.61054388324112
H           -2.02633921520920       -0.78332491627932       -1.47599472836661
H           -2.49615272481291        0.85716462171107       -1.02556211187917
H           -1.80176383801173       -1.36916897049540        0.96456839295601
H           -2.29734484145782        0.28090317272789        1.39133406358723
H            0.05358125723380       -1.57091768991817       -0.45767206304274
H            2.24987749570318       -1.34322679238872       -0.96560153429574
H            2.10497576788336        1.21264166981797        0.37391618025953

          :  Hamiltonian                  GFN2-xTB          :
         :: total energy             -22.555486510882 Eh    ::
         :: gradient norm              0.000094816986 Eh/a0 ::
         :: HOMO-LUMO gap              3.410252020996 eV    ::
         :: SCC energy               -22.843630434597 Eh    ::
         :: -> dispersion             -0.008870579561 Eh    ::
         :: -> Gsolv                  -0.013564976829 Eh    ::
         :: repulsion energy           0.288143923714 Eh    ::

    * Orbital Energies and Occupations

         #    Occupation            Energy/Eh            Energy/eV
      -------------------------------------------------------------
         1        2.0000           -0.7226125             -19.6633
       ...           ...                  ...                  ...
         8        2.0000           -0.5712310             -15.5440
         9        2.0000           -0.5592653             -15.2184
        10        2.0000           -0.5440398             -14.8041
        11        2.0000           -0.5197350             -14.1427
        12        2.0000           -0.5158485             -14.0370
        13        2.0000           -0.5020023             -13.6602
        14        2.0000           -0.4882277             -13.2854
        15        2.0000           -0.4799750             -13.0608
        16        2.0000           -0.4736416             -12.8884
        17        2.0000           -0.4585644             -12.4782
        18        2.0000           -0.4255006             -11.5785
        19        2.0000           -0.4202656             -11.4360
        20        2.0000           -0.3844676             -10.4619 (HOMO)
        21                         -0.2591432              -7.0516 (LUMO)
        22                         -0.1949884              -5.3059
        23                          0.0070777               0.1926
        24                          0.0649271               1.7668
        25                          0.1032283               2.8090
        26                          0.1187373               3.2310
        27                          0.1298084               3.5323
        28                          0.1627139               4.4277
        29                          0.1675654               4.5597
        30                          0.1869947               5.0884
        31                          0.2372625               6.4562
       ...                                ...                  ...
        36                          0.6375137              17.3476
      -------------------------------------------------------------
                  HL-Gap            0.1253245 Eh            3.4103 eV

     #   Z          covCN         q      C6AA      α(0)
     1   6 C        3.753    -0.102    22.513     6.766
     2   6 C        3.804    -0.089    22.203     6.708
     3   6 C        2.751     0.288    22.117     7.701
     4   8 O        0.858    -0.427    22.233     6.322
     5   7 N        2.688    -0.171    24.708     7.382
     6   6 C        2.751     0.145    24.831     8.160
     7   7 N        1.773    -0.331    29.403     8.030
     8   1 H        0.925     0.055     2.253     2.347
     9   1 H        0.925     0.044     2.402     2.424
    10   1 H        0.925     0.047     2.359     2.402
    11   1 H        0.924     0.055     2.264     2.353
    12   1 H        0.924     0.065     2.140     2.288
    13   1 H        0.860     0.197     1.121     1.658
    14   1 H        0.925     0.053     2.281     2.362
    15   1 H        0.860     0.173     1.257     1.756

Wiberg/Mayer (AO) data.
largest (>0.10) Wiberg bond orders for each atom

     #   Z sym  total        # sym  WBO       # sym  WBO       # sym  WBO
 ---------------------------------------------------------------------------
     1   6 C    3.992 --     2 C    0.998    10 H    0.988     9 H    0.986
                             8 H    0.984
     2   6 C    3.995 --     1 C    0.998    12 H    0.974     3 C    0.973
                            11 H    0.966
     3   6 C    3.937 --     4 O    1.722     5 N    1.177     2 C    0.973
     4   8 O    2.028 --     3 C    1.722     5 N    0.149
     5   7 N    3.511 --     3 C    1.177     6 C    1.090    13 H    0.932
                             4 O    0.149     7 N    0.126
     6   6 C    3.961 --     7 N    1.897     5 N    1.090    14 H    0.948
     7   7 N    3.042 --     6 C    1.897    15 H    0.929     5 N    0.126
     8   1 H    0.997 --     1 C    0.984
     9   1 H    0.998 --     1 C    0.986
    10   1 H    0.998 --     1 C    0.988
    11   1 H    0.997 --     2 C    0.966
    12   1 H    0.996 --     2 C    0.974
    13   1 H    0.961 --     5 N    0.932
    14   1 H    0.997 --     6 C    0.948
    15   1 H    0.970 --     7 N    0.929
 ---------------------------------------------------------------------------

molecular dipole:
                 x           y           z       tot (Debye)
 q only:       -0.969      -1.480      -0.611
   full:       -1.448      -1.774      -0.609       6.023

           -------------------------------------------------
          | TOTAL ENERGY              -22.555486510882 Eh   |
          | GRADIENT NORM               0.000094816986 Eh/α |
          | HOMO-LUMO GAP               3.410252020996 eV   |
           -------------------------------------------------

 * finished run on 2024/08/07 at 19:54:17.646
