   * xtb version 6.7.1 (edcfbbe) compiled by 'albert@albert-system' on 2024-07-22

   ID    Z sym.   atoms
    1    6 C      1-3, 5, 6
    2    8 O      4, 7
    3    1 H      8-15

          program call               : xtb crest_best.xyz --gfn 2 --alpb toluene --opt vtight -c 0 --iterations 40
      * Solvation model:               ALPB
        Solvent                        toluene
        Solvent mass                       7.8110E+01 g/mol
          :  Hamiltonian                  GFN2-xTB          :
 * total energy  :   -22.8635254 Eh     change       -0.4082423E-10 Eh
 * total energy  :   -22.8692238 Eh     change       -0.5698332E-02 Eh
 * total energy  :   -22.8704411 Eh     change       -0.1217377E-02 Eh
 * total energy  :   -22.8708720 Eh     change       -0.4308717E-03 Eh
 * total energy  :   -22.8712073 Eh     change       -0.3352800E-03 Eh
 * total energy  :   -22.8716319 Eh     change       -0.4245732E-03 Eh
 * total energy  :   -22.8719979 Eh     change       -0.3659901E-03 Eh
 * total energy  :   -22.8725025 Eh     change       -0.5046611E-03 Eh
 * total energy  :   -22.8730251 Eh     change       -0.5226306E-03 Eh
 * total energy  :   -22.8730888 Eh     change       -0.6364957E-04 Eh
 * total energy  :   -22.8740755 Eh     change       -0.6267457E-06 Eh
 * total energy  :   -22.8740760 Eh     change       -0.4508878E-06 Eh
 * total energy  :   -22.8740763 Eh     change       -0.3889594E-06 Eh
 * total energy  :   -22.8740767 Eh     change       -0.3603498E-06 Eh
 * total energy  :   -22.8740770 Eh     change       -0.3010817E-06 Eh
 * total energy  :   -22.8740772 Eh     change       -0.2146070E-06 Eh
 * total energy  :   -22.8740774 Eh     change       -0.1434961E-06 Eh
 * total energy  :   -22.8740775 Eh     change       -0.1038651E-06 Eh
 * total energy  :   -22.8740776 Eh     change       -0.8647932E-07 Eh
   *** GEOMETRY OPTIMIZATION CONVERGED AFTER 41 ITERATIONS ***

 final structure:
================
15
 xtb: 6.7.1 (edcfbbe)
C            2.61778062557181       -0.49196868826923        0.16583162463539
C            1.16818301273050       -0.64261293891112       -0.29147271259097
C            0.49037237433308        0.70416852388220       -0.34547515132394
O           -0.09069475859159        1.22018278826633        0.80558295653188
C           -0.98400390334225        0.88182767093366       -0.22426249726113
C           -1.89473788609112       -0.27523459322295       -0.03882261379115
O           -1.74362102025697       -1.18525222530618        0.73016632284871
H            2.65233216715762       -0.03149256421953        1.15029029651183
H            3.17745862661333        0.13072603701069       -0.52912921703068
H            3.09461328443339       -1.46698164537197        0.21994279672895
H            0.62945051863158       -1.28907871038698        0.40242066634538
H            1.13462134564172       -1.09071100751442       -1.28780067709514
H            0.99859233582085        1.44476329880319       -0.96502559350833
H           -1.42821261214579        1.72940229869932       -0.74265816619231
H           -2.77437455990629       -0.22703822669305       -0.71099485160869

          :  Hamiltonian                  GFN2-xTB          :
         :: total energy             -22.874077552690 Eh    ::
         :: gradient norm              0.000031405748 Eh/a0 ::
         :: HOMO-LUMO gap              3.502441893437 eV    ::
         :: SCC energy               -23.127090854207 Eh    ::
         :: -> dispersion             -0.008612645923 Eh    ::
         :: -> Gsolv                  -0.010654551181 Eh    ::
         :: repulsion energy           0.253013301517 Eh    ::

    * Orbital Energies and Occupations

         #    Occupation            Energy/Eh            Energy/eV
      -------------------------------------------------------------
         1        2.0000           -0.7422680             -20.1981
       ...           ...                  ...                  ...
         8        2.0000           -0.5777200             -15.7206
         9        2.0000           -0.5647510             -15.3677
        10        2.0000           -0.5635440             -15.3348
        11        2.0000           -0.5544777             -15.0881
        12        2.0000           -0.5351670             -14.5626
        13        2.0000           -0.5134956             -13.9729
        14        2.0000           -0.4984547             -13.5636
        15        2.0000           -0.4950865             -13.4720
        16        2.0000           -0.4684605             -12.7475
        17        2.0000           -0.4580294             -12.4636
        18        2.0000           -0.4464733             -12.1492
        19        2.0000           -0.4382895             -11.9265
        20        2.0000           -0.4188986             -11.3988 (HOMO)
        21                         -0.2901862              -7.8964 (LUMO)
        22                         -0.0917358              -2.4963
        23                          0.0460808               1.2539
        24                          0.0659022               1.7933
        25                          0.0956225               2.6020
        26                          0.1186566               3.2288
        27                          0.1305684               3.5529
        28                          0.1409798               3.8363
        29                          0.1673714               4.5544
        30                          0.1764356               4.8011
        31                          0.2005939               5.4584
       ...                                ...                  ...
        36                          0.6076722              16.5356
      -------------------------------------------------------------
                  HL-Gap            0.1287124 Eh            3.5024 eV

     #   Z          covCN         q      C6AA      α(0)
     1   6 C        3.754    -0.106    22.583     6.776
     2   6 C        3.800    -0.068    21.803     6.648
     3   6 C        3.735     0.124    18.642     6.162
     4   8 O        1.702    -0.302    19.028     5.890
     5   6 C        3.731     0.074    19.427     6.291
     6   6 C        2.756     0.207    23.608     7.957
     7   8 O        0.856    -0.317    20.095     6.010
     8   1 H        0.925     0.051     2.311     2.377
     9   1 H        0.925     0.043     2.409     2.427
    10   1 H        0.925     0.051     2.305     2.374
    11   1 H        0.924     0.071     2.079     2.255
    12   1 H        0.924     0.046     2.366     2.405
    13   1 H        0.924     0.045     2.386     2.416
    14   1 H        0.925     0.049     2.329     2.386
    15   1 H        0.922     0.032     2.559     2.502

Wiberg/Mayer (AO) data.
largest (>0.10) Wiberg bond orders for each atom

     #   Z sym  total        # sym  WBO       # sym  WBO       # sym  WBO
 ---------------------------------------------------------------------------
     1   6 C    3.993 --     2 C    1.009     9 H    0.987     8 H    0.987
                            10 H    0.985
     2   6 C    3.991 --     1 C    1.009     3 C    1.004    12 H    0.971
                            11 H    0.970
     3   6 C    3.905 --     2 C    1.004     4 O    0.958    13 H    0.958
                             5 C    0.900
     4   8 O    2.008 --     3 C    0.958     5 C    0.924
     5   6 C    3.907 --     6 C    1.029    14 H    0.961     4 O    0.924
                             3 C    0.900
     6   6 C    3.926 --     7 O    1.903     5 C    1.029    15 H    0.930
     7   8 O    2.099 --     6 C    1.903
     8   1 H    0.997 --     1 C    0.987
     9   1 H    0.998 --     1 C    0.987
    10   1 H    0.997 --     1 C    0.985
    11   1 H    0.995 --     2 C    0.970
    12   1 H    0.998 --     2 C    0.971
    13   1 H    0.998 --     3 C    0.958
    14   1 H    0.997 --     5 C    0.961
    15   1 H    0.999 --     6 C    0.930
 ---------------------------------------------------------------------------

molecular dipole:
                 x           y           z       tot (Debye)
 q only:        0.438       0.244      -1.185
   full:        0.313       0.464      -1.381       3.786

           -------------------------------------------------
          | TOTAL ENERGY              -22.874077552690 Eh   |
          | GRADIENT NORM               0.000031405748 Eh/α |
          | HOMO-LUMO GAP               3.502441893437 eV   |
           -------------------------------------------------

 * finished run on 2024/08/07 at 21:38:26.311
