   * xtb version 6.7.0 (08769fc) compiled by 'albert@albert-system' on 2024-03-04

   ID    Z sym.   atoms
    1    6 C      1-3, 5, 6
    2    8 O      4, 7
    3    1 H      8-15

          program call               : /home/mvotokps/xtb-dist/bin/xtb crest_best.xyz --gfn 2 --alpb toluene --opt vtight -c 0 --iterations 4000
      * Solvation model:               ALPB
        Solvent                        toluene
        Solvent mass                       7.8110E+01 g/mol
          :  Hamiltonian                  GFN2-xTB          :
 * total energy  :   -22.8629560 Eh     change       -0.4125411E-10 Eh
 * total energy  :   -22.8685793 Eh     change       -0.5623342E-02 Eh
 * total energy  :   -22.8697854 Eh     change       -0.1206060E-02 Eh
 * total energy  :   -22.8702733 Eh     change       -0.4879639E-03 Eh
 * total energy  :   -22.8705434 Eh     change       -0.2701036E-03 Eh
 * total energy  :   -22.8708632 Eh     change       -0.3197693E-03 Eh
 * total energy  :   -22.8712364 Eh     change       -0.3732192E-03 Eh
 * total energy  :   -22.8716653 Eh     change       -0.4288893E-03 Eh
 * total energy  :   -22.8721906 Eh     change       -0.5253230E-03 Eh
 * total energy  :   -22.8721896 Eh     change        0.1073544E-05 Eh
 * total energy  :   -22.8740712 Eh     change       -0.1977973E-05 Eh
 * total energy  :   -22.8740725 Eh     change       -0.1375519E-05 Eh
 * total energy  :   -22.8740733 Eh     change       -0.7559995E-06 Eh
 * total energy  :   -22.8740737 Eh     change       -0.4501531E-06 Eh
 * total energy  :   -22.8740741 Eh     change       -0.3527458E-06 Eh
 * total energy  :   -22.8740744 Eh     change       -0.3346722E-06 Eh
 * total energy  :   -22.8740748 Eh     change       -0.3206791E-06 Eh
 * total energy  :   -22.8740750 Eh     change       -0.2362809E-06 Eh
 * total energy  :   -22.8740751 Eh     change       -0.7309214E-07 Eh
   *** GEOMETRY OPTIMIZATION CONVERGED AFTER 44 ITERATIONS ***

 final structure:
================
15
 xtb: 6.7.0 (08769fc)
C            2.61845735608138       -0.50145407510658        0.17148570212168
C            1.16485019668386       -0.65130254696868       -0.27312739233710
C            0.49221144345526        0.69757619200376       -0.33875460721710
O           -0.08274737877538        1.22776075909070        0.80894655495361
C           -0.98103392715515        0.88189453848558       -0.21404314754388
C           -1.89512731622191       -0.26994381128909       -0.01313185214379
O           -1.74491867730322       -1.17174031485717        0.76564413601176
H            3.17624339725572        0.10805532577842       -0.53657147795988
H            3.09069988759541       -1.47803832346869        0.23651576421598
H            2.66251219428513       -0.02677400231193        1.14880187023958
H            0.62843936123267       -1.28670330207398        0.43268918781433
H            1.12194932425234       -1.11171990269999       -1.26347168035022
H            1.00096131931397        1.42969441479853       -0.96785233936923
H           -1.42415833746082        1.72558260056619       -0.73965064898449
H           -2.77647273513929       -0.22628085424703       -0.68337535835119

          :  Hamiltonian                  GFN2-xTB          :
         :: total energy             -22.874075059824 Eh    ::
         :: gradient norm              0.000029807452 Eh/a0 ::
         :: HOMO-LUMO gap              3.502575143699 eV    ::
         :: SCC energy               -23.127087470615 Eh    ::
         :: -> dispersion             -0.008611993697 Eh    ::
         :: -> Gsolv                  -0.010654338508 Eh    ::
         :: repulsion energy           0.253012410792 Eh    ::

    * Orbital Energies and Occupations

         #    Occupation            Energy/Eh            Energy/eV
      -------------------------------------------------------------
         1        2.0000           -0.7422657             -20.1981
       ...           ...                  ...                  ...
         8        2.0000           -0.5777006             -15.7200
         9        2.0000           -0.5647603             -15.3679
        10        2.0000           -0.5635242             -15.3343
        11        2.0000           -0.5544724             -15.0880
        12        2.0000           -0.5351923             -14.5633
        13        2.0000           -0.5135293             -13.9738
        14        2.0000           -0.4984787             -13.5643
        15        2.0000           -0.4950380             -13.4707
        16        2.0000           -0.4684658             -12.7476
        17        2.0000           -0.4580702             -12.4647
        18        2.0000           -0.4464554             -12.1487
        19        2.0000           -0.4383062             -11.9269
        20        2.0000           -0.4188954             -11.3987 (HOMO)
        21                         -0.2901781              -7.8961 (LUMO)
        22                         -0.0917383              -2.4963
        23                          0.0460872               1.2541
        24                          0.0658318               1.7914
        25                          0.0956049               2.6015
        26                          0.1186529               3.2287
        27                          0.1306300               3.5546
        28                          0.1409867               3.8364
        29                          0.1672816               4.5520
        30                          0.1763329               4.7983
        31                          0.2006613               5.4603
       ...                                ...                  ...
        36                          0.6076878              16.5360
      -------------------------------------------------------------
                  HL-Gap            0.1287173 Eh            3.5026 eV

     #   Z          covCN         q      C6AA      α(0)
     1   6 C        3.754    -0.106    22.584     6.776
     2   6 C        3.800    -0.068    21.803     6.648
     3   6 C        3.735     0.124    18.642     6.162
     4   8 O        1.702    -0.302    19.029     5.890
     5   6 C        3.731     0.074    19.427     6.292
     6   6 C        2.756     0.207    23.608     7.957
     7   8 O        0.856    -0.317    20.095     6.010
     8   1 H        0.925     0.043     2.409     2.427
     9   1 H        0.925     0.051     2.304     2.374
    10   1 H        0.925     0.051     2.311     2.377
    11   1 H        0.924     0.071     2.079     2.255
    12   1 H        0.924     0.046     2.366     2.405
    13   1 H        0.924     0.045     2.385     2.415
    14   1 H        0.925     0.049     2.328     2.386
    15   1 H        0.922     0.032     2.559     2.502

Wiberg/Mayer (AO) data.
largest (>0.10) Wiberg bond orders for each atom

     #   Z sym  total        # sym  WBO       # sym  WBO       # sym  WBO
 ---------------------------------------------------------------------------
     1   6 C    3.993 --     2 C    1.009     8 H    0.987    10 H    0.987
                             9 H    0.985
     2   6 C    3.991 --     1 C    1.009     3 C    1.004    12 H    0.971
                            11 H    0.970
     3   6 C    3.905 --     2 C    1.004    13 H    0.958     4 O    0.958
                             5 C    0.900
     4   8 O    2.008 --     3 C    0.958     5 C    0.924
     5   6 C    3.907 --     6 C    1.029    14 H    0.961     4 O    0.924
                             3 C    0.900
     6   6 C    3.926 --     7 O    1.903     5 C    1.029    15 H    0.930
     7   8 O    2.099 --     6 C    1.903
     8   1 H    0.998 --     1 C    0.987
     9   1 H    0.997 --     1 C    0.985
    10   1 H    0.997 --     1 C    0.987
    11   1 H    0.995 --     2 C    0.970
    12   1 H    0.998 --     2 C    0.971
    13   1 H    0.998 --     3 C    0.958
    14   1 H    0.997 --     5 C    0.961
    15   1 H    0.999 --     6 C    0.930
 ---------------------------------------------------------------------------

molecular dipole:
                 x           y           z       tot (Debye)
 q only:        0.434       0.230      -1.190
   full:        0.310       0.448      -1.387       3.788

           -------------------------------------------------
          | TOTAL ENERGY              -22.874075059824 Eh   |
          | GRADIENT NORM               0.000029807452 Eh/α |
          | HOMO-LUMO GAP               3.502575143699 eV   |
           -------------------------------------------------

 * finished run on 2024/08/07 at 20:31:02.924
