   * xtb version 6.7.1 (edcfbbe) compiled by 'albert@albert-system' on 2024-07-22

   ID    Z sym.   atoms
    1    6 C      1, 2, 4, 6, 7
    2    8 O      3, 5
    3    1 H      8-13

          program call               : xtb crest_best.xyz --gfn 2 --alpb toluene --opt vtight -c 0 --iterations 40
      * Solvation model:               ALPB
        Solvent                        toluene
        Solvent mass                       7.8110E+01 g/mol
          :  Hamiltonian                  GFN2-xTB          :
 * total energy  :   -21.8048659 Eh     change       -0.7962342E-10 Eh
 * total energy  :   -21.8080881 Eh     change       -0.3222203E-02 Eh
 * total energy  :   -21.8087947 Eh     change       -0.7065961E-03 Eh
 * total energy  :   -21.8091920 Eh     change       -0.3973496E-03 Eh
 * total energy  :   -21.8096363 Eh     change       -0.4442872E-03 Eh
 * total energy  :   -21.8103067 Eh     change       -0.6703456E-03 Eh
 * total energy  :   -21.8106086 Eh     change       -0.3019439E-03 Eh
 * total energy  :   -21.8108218 Eh     change       -0.2132211E-03 Eh
 * total energy  :   -21.8109067 Eh     change       -0.8488643E-04 Eh
 * total energy  :   -21.8109963 Eh     change       -0.8957543E-04 Eh
 * total energy  :   -21.8115258 Eh     change       -0.3146364E-05 Eh
 * total energy  :   -21.8115289 Eh     change       -0.3093863E-05 Eh
 * total energy  :   -21.8115308 Eh     change       -0.1877519E-05 Eh
 * total energy  :   -21.8115330 Eh     change       -0.2223282E-05 Eh
 * total energy  :   -21.8115355 Eh     change       -0.2537800E-05 Eh
 * total energy  :   -21.8115359 Eh     change       -0.3516637E-06 Eh
 * total energy  :   -21.8115361 Eh     change       -0.1992348E-06 Eh
 * total energy  :   -21.8115362 Eh     change       -0.8032444E-07 Eh
 * total energy  :   -21.8115362 Eh     change       -0.2545787E-07 Eh
   *** GEOMETRY OPTIMIZATION CONVERGED AFTER 40 ITERATIONS ***

 final structure:
================
13
 xtb: 6.7.1 (edcfbbe)
C           -1.61101776267728        1.28881595884018        0.46613312705399
C           -1.03927317916846        0.02117419676744       -0.08477638615815
O           -1.50544891296955       -0.60451540545242       -1.00654979717356
C            0.24761276852107       -0.48249908652041        0.58915459037554
O            0.52738310488907       -1.80306297569469        0.19710474677622
C            1.31062305912309        0.44593877485610        0.20022749503526
C            2.19253815646600        1.15987357350245       -0.18129978476415
H           -2.34182229437758        1.70302651630969       -0.22411492932334
H           -0.82039584488083        2.00921917241796        0.66317136487070
H           -2.10752791635157        1.06338402861714        1.41005275099262
H            0.13826852898811       -0.46698143168868        1.68226006595955
H            0.05843144090645       -1.94931666888289       -0.64103126676997
H            2.96974180933134        1.79881018002806       -0.48075718757466

          :  Hamiltonian                  GFN2-xTB          :
         :: total energy             -21.811536185322 Eh    ::
         :: gradient norm              0.000079853655 Eh/a0 ::
         :: HOMO-LUMO gap              3.747361657252 eV    ::
         :: SCC energy               -22.124697471642 Eh    ::
         :: -> dispersion             -0.007768637172 Eh    ::
         :: -> Gsolv                  -0.010950376111 Eh    ::
         :: repulsion energy           0.313161286320 Eh    ::

    * Orbital Energies and Occupations

         #    Occupation            Energy/Eh            Energy/eV
      -------------------------------------------------------------
         1        2.0000           -0.7388430             -20.1049
       ...           ...                  ...                  ...
         7        2.0000           -0.5845212             -15.9056
         8        2.0000           -0.5777054             -15.7202
         9        2.0000           -0.5569487             -15.1553
        10        2.0000           -0.5450666             -14.8320
        11        2.0000           -0.5230683             -14.2334
        12        2.0000           -0.5100911             -13.8803
        13        2.0000           -0.5065001             -13.7826
        14        2.0000           -0.4947997             -13.4642
        15        2.0000           -0.4830712             -13.1450
        16        2.0000           -0.4533128             -12.3353
        17        2.0000           -0.4362310             -11.8704
        18        2.0000           -0.4285263             -11.6608
        19        2.0000           -0.4127757             -11.2322 (HOMO)
        20                         -0.2750626              -7.4848 (LUMO)
        21                         -0.1807590              -4.9187
        22                         -0.1699076              -4.6234
        23                          0.0342884               0.9330
        24                          0.0581687               1.5829
        25                          0.0868354               2.3629
        26                          0.1438710               3.9149
        27                          0.1539430               4.1890
        28                          0.1731070               4.7105
        29                          0.1942739               5.2865
        30                          0.2082317               5.6663
       ...                                ...                  ...
        34                          1.4005781              38.1117
      -------------------------------------------------------------
                  HL-Gap            0.1377130 Eh            3.7474 eV

     #   Z          covCN         q      C6AA      α(0)
     1   6 C        3.753    -0.145    23.356     6.891
     2   6 C        2.823     0.235    23.087     7.873
     3   8 O        0.857    -0.368    21.054     6.152
     4   6 C        3.729     0.112    18.839     6.196
     5   8 O        1.656    -0.441    21.664     6.283
     6   6 C        1.976    -0.031    31.895     9.120
     7   6 C        1.909    -0.091    33.602     9.362
     8   1 H        0.925     0.080     1.977     2.199
     9   1 H        0.925     0.080     1.982     2.202
    10   1 H        0.925     0.090     1.882     2.145
    11   1 H        0.923     0.072     2.065     2.247
    12   1 H        0.804     0.310     0.693     1.307
    13   1 H        0.928     0.098     1.801     2.098

Wiberg/Mayer (AO) data.
largest (>0.10) Wiberg bond orders for each atom

     #   Z sym  total        # sym  WBO       # sym  WBO       # sym  WBO
 ---------------------------------------------------------------------------
     1   6 C    3.991 --     2 C    1.022     8 H    0.978     9 H    0.963
                            10 H    0.945
     2   6 C    3.908 --     3 O    1.850     1 C    1.022     4 C    0.933
     3   8 O    2.088 --     2 C    1.850
     4   6 C    3.965 --     5 O    0.999     6 C    0.996     2 C    0.933
                            11 H    0.929
     5   8 O    1.968 --     4 C    0.999    12 H    0.872
     6   6 C    3.975 --     7 C    2.898     4 C    0.996
     7   6 C    3.971 --     6 C    2.898    13 H    0.966
     8   1 H    0.994 --     1 C    0.978
     9   1 H    0.994 --     1 C    0.963
    10   1 H    0.992 --     1 C    0.945
    11   1 H    0.995 --     4 C    0.929
    12   1 H    0.904 --     5 O    0.872
    13   1 H    0.990 --     7 C    0.966
 ---------------------------------------------------------------------------

molecular dipole:
                 x           y           z       tot (Debye)
 q only:       -0.045       1.124       0.583
   full:       -0.111       1.270       0.580       3.561

           -------------------------------------------------
          | TOTAL ENERGY              -21.811536185322 Eh   |
          | GRADIENT NORM               0.000079853655 Eh/α |
          | HOMO-LUMO GAP               3.747361657252 eV   |
           -------------------------------------------------

 * finished run on 2024/08/07 at 21:04:44.914
