   * xtb version 6.5.1 (fef0646) compiled by 'conda@b96dff2e9fd6' on 2023-01-04
          program call               : xtb crest_best.xyz --opt normal -c 0 --iterations 4000

   ID    Z sym.   atoms
    1    6 C      1, 3, 4, 6-9, 11, 12, 14-20, 22-24, 28
    2    7 N      2, 13, 25, 27
    3   16 S      5, 26
    4   34 Se     10
    5    8 O      21
    6    1 H      29-38

          :  Hamiltonian                  GFN2-xTB          :
 * total energy  :   -73.3293284 Eh     change       -0.3266933E-09 Eh
 * total energy  :   -73.3388625 Eh     change       -0.9534077E-02 Eh
 * total energy  :   -73.3420984 Eh     change       -0.3235929E-02 Eh
 * total energy  :   -73.3427361 Eh     change       -0.6376824E-03 Eh
 * total energy  :   -73.3429187 Eh     change       -0.1826705E-03 Eh
 * total energy  :   -73.3429509 Eh     change       -0.3218995E-04 Eh
 * total energy  :   -73.3429705 Eh     change       -0.1960667E-04 Eh
 * total energy  :   -73.3429796 Eh     change       -0.9022733E-05 Eh
 * total energy  :   -73.3429937 Eh     change       -0.1413290E-04 Eh
 * total energy  :   -73.3429988 Eh     change       -0.5089921E-05 Eh
 * total energy  :   -73.3430025 Eh     change       -0.3664519E-05 Eh
   *** GEOMETRY OPTIMIZATION CONVERGED AFTER 11 ITERATIONS ***

 final structure:
================
38
 xtb: 6.5.1 (fef0646)
C            7.64366060117720       -0.34690782271560       -0.01440167654057
N            7.15453404664258        0.83872405156099       -0.01597814242184
C            5.81003160746918        0.82397687022440       -0.00976859875695
C            5.22185195800670       -0.41983758830203       -0.00305103919089
S            6.47352129809821       -1.63224144162262       -0.00475439703999
C            3.83474199641875       -0.73497343835788        0.00354260016743
C            3.28363357608625       -1.99566784686391        0.01155064331491
C            1.88578413122432       -2.03550241660158        0.01550817330411
C            1.25836462248069       -0.80886122656245        0.01084761992509
Se           2.50541225648385        0.59668828176198        0.00117657391742
C           -0.14450898405917       -0.53676191569780        0.01115452514096
C           -1.16268863296077       -1.48401664294436        0.01494705272608
N           -2.45927375819768       -1.21425429320906        0.01218439167188
C           -2.93709401981029        0.01939429088604        0.00640625400244
C           -4.37540300901389        0.18220942324796        0.00180444323612
C           -4.98214711135782        1.42116518859947        0.00119528467569
C           -6.38168312675649        1.58102081161663       -0.00381457617977
C           -7.23069454347991        0.51191248016691       -0.00869207938915
C           -6.66716140173320       -0.78056153427989       -0.00842398727480
C           -7.19801322958191       -2.05415239792386       -0.01274747244552
O           -6.21558943981939       -2.95783393088665       -0.01011162385700
C           -5.03967480159252       -2.32083608514572       -0.00441715754539
C           -5.23516244580594       -0.95874508520226       -0.00289191619470
C           -2.00753562972053        1.10532543327216        0.00388880527227
N           -2.21157615928058        2.42289250071964       -0.00127780880144
S           -0.80083994548782        3.18833203619093       -0.00364453744932
N            0.15927985385830        1.88891229706595        0.00178637902562
C           -0.60640977564907        0.80003680360793        0.00577113818279
H            8.69221499878421       -0.56628618696927       -0.01861277973568
H            5.26310157128117        1.75266438034382       -0.01026316208087
H            3.89204112448560       -2.88572328656331        0.01428742275545
H            1.33933519816590       -2.96335265338080        0.02164227593680
H           -0.92769723461645       -2.53960472208851        0.01994718424526
H           -4.36496268991299        2.30539112035137        0.00464749831494
H           -6.77941868240741        2.58520339776665       -0.00383194920832
H           -8.30288713289018        0.63466388290885       -0.01274080468447
H           -8.20858097476447       -2.41050923875015       -0.01752970328884
H           -4.14561211996437       -2.90735635402376       -0.00166546863031

          :  Hamiltonian                  GFN2-xTB          :
         :: total energy             -73.343002455989 Eh    ::
         :: gradient norm              0.000453012326 Eh/a0 ::
         :: HOMO-LUMO gap              1.057547874292 eV    ::
         :: SCC energy               -74.387035069963 Eh    ::
         :: -> dispersion             -0.056683079514 Eh    ::
         :: repulsion energy           1.044719875325 Eh    ::

    * Orbital Energies and Occupations

         #    Occupation            Energy/Eh            Energy/eV
      -------------------------------------------------------------
         1        2.0000           -0.7762369             -21.1225
       ...           ...                  ...                  ...
        55        2.0000           -0.4372578             -11.8984
        56        2.0000           -0.4357803             -11.8582
        57        2.0000           -0.4326377             -11.7727
        58        2.0000           -0.4213773             -11.4663
        59        2.0000           -0.4183624             -11.3842
        60        2.0000           -0.4179542             -11.3731
        61        2.0000           -0.4171835             -11.3521
        62        2.0000           -0.4092619             -11.1366
        63        2.0000           -0.3974815             -10.8160
        64        2.0000           -0.3888363             -10.5808
        65        2.0000           -0.3790954             -10.3157
        66        2.0000           -0.3788329             -10.3086
        67        2.0000           -0.3646757              -9.9233 (HOMO)
        68                         -0.3258115              -8.8658 (LUMO)
        69                         -0.2869637              -7.8087
        70                         -0.2745403              -7.4706
        71                         -0.2469273              -6.7192
        72                         -0.2366049              -6.4383
        73                         -0.2364382              -6.4338
        74                         -0.2179677              -5.9312
        75                         -0.2169917              -5.9046
        76                         -0.2006194              -5.4591
        77                         -0.1970475              -5.3619
        78                         -0.1905869              -5.1861
       ...                                ...                  ...
       137                          0.9509672              25.8771
      -------------------------------------------------------------
                  HL-Gap            0.0388642 Eh            1.0575 eV

     #   Z          covCN         q      C6AA      α(0)
     1   6 C        2.995     0.074    26.332     8.418
     2   7 N        1.952    -0.210    26.379     7.616
     3   6 C        3.191     0.030    26.850     8.451
     4   6 C        3.003     0.019    27.575     8.614
     5  16 S        2.283    -0.046   142.972    20.125
     6   6 C        3.000     0.001    27.994     8.679
     7   6 C        3.071    -0.040    28.921     8.818
     8   6 C        3.074    -0.040    28.919     8.817
     9   6 C        2.979     0.012    27.753     8.641
    10  34 Se       2.429    -0.032   236.797    26.814
    11   6 C        2.992    -0.015    28.374     8.738
    12   6 C        2.891     0.046    26.970     8.515
    13   7 N        1.846    -0.236    27.021     7.704
    14   6 C        2.928     0.081    26.191     8.393
    15   6 C        2.965     0.008    27.847     8.656
    16   6 C        2.922    -0.033    28.817     8.803
    17   6 C        2.917    -0.028    28.708     8.786
    18   6 C        2.905    -0.027    28.673     8.780
    19   6 C        3.077    -0.013    28.257     8.715
    20   6 C        3.028     0.055    26.737     8.482
    21   8 O        1.731    -0.149    16.543     5.492
    22   6 C        3.034     0.060    26.617     8.462
    23   6 C        3.071    -0.012    28.242     8.714
    24   6 C        3.316     0.061    24.649     7.912
    25   7 N        1.857    -0.261    27.639     7.792
    26  16 S        2.659     0.360   127.223    18.984
    27   7 N        1.963    -0.241    27.110     7.721
    28   6 C        3.373     0.083    23.093     7.507
    29   1 H        0.926     0.054     2.265     2.354
    30   1 H        0.926     0.053     2.279     2.360
    31   1 H        0.926     0.042     2.422     2.433
    32   1 H        0.926     0.039     2.460     2.453
    33   1 H        0.925     0.043     2.412     2.429
    34   1 H        0.926     0.062     2.171     2.304
    35   1 H        0.926     0.038     2.479     2.462
    36   1 H        0.926     0.037     2.485     2.465
    37   1 H        0.926     0.051     2.306     2.375
    38   1 H        0.927     0.073     2.050     2.239

Wiberg/Mayer (AO) data.
largest (>0.10) Wiberg bond orders for each atom

     #   Z sym  total        # sym  WBO       # sym  WBO       # sym  WBO
 ---------------------------------------------------------------------------
     1   6 C    3.934 --     2 N    1.638     5 S    1.167    29 H    0.965
     2   7 N    3.138 --     1 C    1.638     3 C    1.292     5 S    0.162
     3   6 C    3.955 --     4 C    1.493     2 N    1.292    30 H    0.946
     4   6 C    3.949 --     3 C    1.493     6 C    1.170     5 S    1.132
     5  16 S    2.630 --     1 C    1.167     4 C    1.132     2 N    0.162
     6   6 C    3.937 --     7 C    1.473     4 C    1.170    10 Se   1.135
     7   6 C    3.984 --     6 C    1.473     8 C    1.340    31 H    0.960
     8   6 C    3.964 --     9 C    1.461     7 C    1.340    32 H    0.961
     9   6 C    3.953 --     8 C    1.461    11 C    1.158    10 Se   1.146
    10  34 Se   2.845 --     9 C    1.146     6 C    1.135    27 N    0.175
    11   6 C    3.966 --    12 C    1.387    28 C    1.194     9 C    1.158
    12   6 C    3.969 --    13 N    1.398    11 C    1.387    33 H    0.958
    13   7 N    3.085 --    14 C    1.422    12 C    1.398
    14   6 C    3.946 --    13 N    1.422    24 C    1.168    15 C    1.119
    15   6 C    3.986 --    16 C    1.484    23 C    1.173    14 C    1.119
    16   6 C    3.968 --    15 C    1.484    17 C    1.310    34 H    0.957
    17   6 C    3.988 --    18 C    1.573    16 C    1.310    35 H    0.970
    18   6 C    3.951 --    17 C    1.573    19 C    1.236    36 H    0.968
    19   6 C    3.985 --    20 C    1.436    18 C    1.236    23 C    1.166
    20   6 C    3.883 --    19 C    1.436    21 O    1.169    37 H    0.966
                            22 C    0.191
    21   8 O    2.496 --    20 C    1.169    22 C    1.163
    22   6 C    3.893 --    23 C    1.472    21 O    1.163    38 H    0.961
                            20 C    0.191
    23   6 C    3.982 --    22 C    1.472    15 C    1.173    19 C    1.166
    24   6 C    3.970 --    25 N    1.388    28 C    1.182    14 C    1.168
                            26 S    0.100
    25   7 N    3.088 --    26 S    1.442    24 C    1.388    27 N    0.157
    26  16 S    3.165 --    25 N    1.442    27 N    1.380    24 C    0.100
    27   7 N    3.198 --    28 C    1.381    26 S    1.380    10 Se   0.175
                            25 N    0.157
    28   6 C    3.971 --    27 N    1.381    11 C    1.194    24 C    1.182
    29   1 H    0.997 --     1 C    0.965
    30   1 H    0.997 --     3 C    0.946
    31   1 H    0.997 --     7 C    0.960
    32   1 H    0.998 --     8 C    0.961
    33   1 H    0.996 --    12 C    0.958
    34   1 H    0.996 --    16 C    0.957
    35   1 H    0.998 --    17 C    0.970
    36   1 H    0.997 --    18 C    0.968
    37   1 H    0.997 --    20 C    0.966
    38   1 H    0.994 --    22 C    0.961
 ---------------------------------------------------------------------------

molecular dipole:
                 x           y           z       tot (Debye)
 q only:       -1.159       0.375      -0.002
   full:       -0.959      -0.067       0.000       2.442

           -------------------------------------------------
          | TOTAL ENERGY              -73.343002455989 Eh   |
          | GRADIENT NORM               0.000453012326 Eh/α |
          | HOMO-LUMO GAP               1.057547874292 eV   |
           -------------------------------------------------

 * finished run on 2024/06/14 at 02:58:09.978
