   * xtb version 6.7.1 (edcfbbe) compiled by 'albert@albert-system' on 2024-07-22

   ID    Z sym.   atoms
    1    6 C      1-3, 6
    2    8 O      4
    3    7 N      5, 7
    4    1 H      8-15

          program call               : xtb crest_best.xyz --gfn 2 --alpb toluene --opt vtight -c 0 --iterations 40
      * Solvation model:               ALPB
        Solvent                        toluene
        Solvent mass                       7.8110E+01 g/mol
          :  Hamiltonian                  GFN2-xTB          :
 * total energy  :   -22.5526626 Eh     change       -0.3625544E-10 Eh
 * total energy  :   -22.5555930 Eh     change       -0.2930455E-02 Eh
 * total energy  :   -22.5562094 Eh     change       -0.6163502E-03 Eh
 * total energy  :   -22.5562873 Eh     change       -0.7798400E-04 Eh
 * total energy  :   -22.5563194 Eh     change       -0.3203941E-04 Eh
 * total energy  :   -22.5563288 Eh     change       -0.9374970E-05 Eh
 * total energy  :   -22.5563324 Eh     change       -0.3645098E-05 Eh
 * total energy  :   -22.5563340 Eh     change       -0.1559033E-05 Eh
 * total energy  :   -22.5563365 Eh     change       -0.2497099E-05 Eh
 * total energy  :   -22.5563401 Eh     change       -0.3662044E-05 Eh
 * total energy  :   -22.5574793 Eh     change       -0.1453804E-04 Eh
 * total energy  :   -22.5574848 Eh     change       -0.5507423E-05 Eh
 * total energy  :   -22.5574871 Eh     change       -0.2240551E-05 Eh
 * total energy  :   -22.5574889 Eh     change       -0.1843747E-05 Eh
 * total energy  :   -22.5574906 Eh     change       -0.1667212E-05 Eh
 * total energy  :   -22.5574914 Eh     change       -0.8248853E-06 Eh
 * total energy  :   -22.5574921 Eh     change       -0.7114227E-06 Eh
 * total energy  :   -22.5574923 Eh     change       -0.1686608E-06 Eh
 * total energy  :   -22.5574923 Eh     change       -0.2978707E-07 Eh
   *** GEOMETRY OPTIMIZATION CONVERGED AFTER 39 ITERATIONS ***

 final structure:
================
15
 xtb: 6.7.1 (edcfbbe)
C           -2.39757244967099        0.64478466014407       -0.71185422623960
C           -1.80604991783714        0.38046280041998        0.67567093328475
C           -0.52055637682269       -0.41214196291674        0.56092375543567
O           -0.42564322231921       -1.59191665565316        0.81151424099653
N            0.54597935800574        0.33552946543144        0.11546938348464
C            1.81251037000146       -0.17232795057521       -0.10869706049155
N            2.81817956761244        0.45370101888887       -0.51485642947028
H           -1.72034012030857        1.23424977569795       -1.32657381776008
H           -3.33565152361262        1.18602329823210       -0.61653541636972
H           -2.59243360629887       -0.29629150829616       -1.22144247894567
H           -2.50987070480350       -0.20518632842492        1.26824856873013
H           -1.61378119097313        1.32491544481759        1.18923348069260
H            0.40090329923331        1.32229543594431       -0.06635495357133
H            1.89622301204974       -1.23193433483533        0.10384510728570
H            2.67008846134390        1.44628473012515       -0.69499317116221

          :  Hamiltonian                  GFN2-xTB          :
         :: total energy             -22.557492316669 Eh    ::
         :: gradient norm              0.000073388641 Eh/a0 ::
         :: HOMO-LUMO gap              3.579329414029 eV    ::
         :: SCC energy               -22.846142703506 Eh    ::
         :: -> dispersion             -0.008626637100 Eh    ::
         :: -> Gsolv                  -0.013337637536 Eh    ::
         :: repulsion energy           0.288650386837 Eh    ::

    * Orbital Energies and Occupations

         #    Occupation            Energy/Eh            Energy/eV
      -------------------------------------------------------------
         1        2.0000           -0.7230705             -19.6757
       ...           ...                  ...                  ...
         8        2.0000           -0.5682868             -15.4639
         9        2.0000           -0.5587352             -15.2040
        10        2.0000           -0.5511134             -14.9966
        11        2.0000           -0.5194123             -14.1339
        12        2.0000           -0.5168965             -14.0655
        13        2.0000           -0.5043795             -13.7249
        14        2.0000           -0.4857026             -13.2166
        15        2.0000           -0.4826265             -13.1329
        16        2.0000           -0.4754718             -12.9382
        17        2.0000           -0.4594710             -12.5028
        18        2.0000           -0.4264459             -11.6042
        19        2.0000           -0.4226030             -11.4996
        20        2.0000           -0.3922001             -10.6723 (HOMO)
        21                         -0.2606621              -7.0930 (LUMO)
        22                         -0.1966693              -5.3516
        23                          0.0104919               0.2855
        24                          0.0672140               1.8290
        25                          0.1022862               2.7833
        26                          0.1077322               2.9315
        27                          0.1319493               3.5905
        28                          0.1637105               4.4548
        29                          0.1697479               4.6191
        30                          0.1941428               5.2829
        31                          0.2133300               5.8050
       ...                                ...                  ...
        36                          0.6312903              17.1783
      -------------------------------------------------------------
                  HL-Gap            0.1315379 Eh            3.5793 eV

     #   Z          covCN         q      C6AA      α(0)
     1   6 C        3.753    -0.102    22.513     6.766
     2   6 C        3.804    -0.088    22.180     6.705
     3   6 C        2.755     0.285    22.175     7.711
     4   8 O        0.858    -0.421    22.106     6.304
     5   7 N        2.690    -0.168    24.625     7.370
     6   6 C        2.755     0.148    24.773     8.150
     7   7 N        1.774    -0.340    29.656     8.064
     8   1 H        0.925     0.044     2.401     2.423
     9   1 H        0.925     0.056     2.244     2.343
    10   1 H        0.925     0.048     2.349     2.397
    11   1 H        0.924     0.066     2.126     2.280
    12   1 H        0.924     0.056     2.244     2.343
    13   1 H        0.860     0.197     1.123     1.660
    14   1 H        0.925     0.071     2.074     2.252
    15   1 H        0.860     0.149     1.407     1.858

Wiberg/Mayer (AO) data.
largest (>0.10) Wiberg bond orders for each atom

     #   Z sym  total        # sym  WBO       # sym  WBO       # sym  WBO
 ---------------------------------------------------------------------------
     1   6 C    3.992 --     2 C    0.997    10 H    0.988     8 H    0.986
                             9 H    0.983
     2   6 C    3.994 --     1 C    0.997     3 C    0.975    11 H    0.974
                            12 H    0.965
     3   6 C    3.936 --     4 O    1.737     5 N    1.159     2 C    0.975
     4   8 O    2.031 --     3 C    1.737     5 N    0.148
     5   7 N    3.515 --     3 C    1.159     6 C    1.118    13 H    0.925
                             4 O    0.148     7 N    0.129
     6   6 C    3.957 --     7 N    1.868     5 N    1.118    14 H    0.944
     7   7 N    3.024 --     6 C    1.868    15 H    0.944     5 N    0.129
     8   1 H    0.998 --     1 C    0.986
     9   1 H    0.996 --     1 C    0.983
    10   1 H    0.998 --     1 C    0.988
    11   1 H    0.995 --     2 C    0.974
    12   1 H    0.997 --     2 C    0.965
    13   1 H    0.961 --     5 N    0.925
    14   1 H    0.995 --     6 C    0.944
    15   1 H    0.978 --     7 N    0.944
 ---------------------------------------------------------------------------

molecular dipole:
                 x           y           z       tot (Debye)
 q only:       -0.716       1.460      -0.261
   full:       -1.114       1.838      -0.224       5.492

           -------------------------------------------------
          | TOTAL ENERGY              -22.557492316669 Eh   |
          | GRADIENT NORM               0.000073388641 Eh/α |
          | HOMO-LUMO GAP               3.579329414029 eV   |
           -------------------------------------------------

 * finished run on 2024/08/07 at 20:58:35.707
