   * xtb version 6.7.0 (08769fc) compiled by 'albert@albert-system' on 2024-03-04

   ID    Z sym.   atoms
    1    6 C      1, 2, 4, 6, 7
    2    8 O      3, 5
    3    1 H      8-13

          program call               : /home/mvotokps/xtb-dist/bin/xtb crest_best.xyz --gfn 2 --alpb toluene --opt vtight -c 0 --iterations 4000
      * Solvation model:               ALPB
        Solvent                        toluene
        Solvent mass                       7.8110E+01 g/mol
          :  Hamiltonian                  GFN2-xTB          :
 * total energy  :   -21.8047174 Eh     change       -0.8081003E-10 Eh
 * total energy  :   -21.8079252 Eh     change       -0.3207829E-02 Eh
 * total energy  :   -21.8084770 Eh     change       -0.5517748E-03 Eh
 * total energy  :   -21.8088285 Eh     change       -0.3514913E-03 Eh
 * total energy  :   -21.8092967 Eh     change       -0.4682096E-03 Eh
 * total energy  :   -21.8098625 Eh     change       -0.5658184E-03 Eh
 * total energy  :   -21.8102422 Eh     change       -0.3797092E-03 Eh
 * total energy  :   -21.8105583 Eh     change       -0.3160582E-03 Eh
 * total energy  :   -21.8107463 Eh     change       -0.1880480E-03 Eh
 * total energy  :   -21.8108872 Eh     change       -0.1408870E-03 Eh
 * total energy  :   -21.8115280 Eh     change       -0.2242111E-05 Eh
 * total energy  :   -21.8115307 Eh     change       -0.2710784E-05 Eh
 * total energy  :   -21.8115333 Eh     change       -0.2566686E-05 Eh
 * total energy  :   -21.8115358 Eh     change       -0.2500969E-05 Eh
 * total energy  :   -21.8115372 Eh     change       -0.1424759E-05 Eh
 * total energy  :   -21.8115378 Eh     change       -0.5584147E-06 Eh
 * total energy  :   -21.8115381 Eh     change       -0.3520883E-06 Eh
 * total energy  :   -21.8115383 Eh     change       -0.1280426E-06 Eh
 * total energy  :   -21.8115383 Eh     change       -0.4378304E-07 Eh
   *** GEOMETRY OPTIMIZATION CONVERGED AFTER 41 ITERATIONS ***

 final structure:
================
13
 xtb: 6.7.0 (08769fc)
C           -1.61775766658108       -1.28162691826335       -0.46153023203357
C           -1.03744403008668       -0.02257460775396        0.09991609264243
O           -1.49068458667119        0.59031211751535        1.03661749426660
C            0.24092212198640        0.48966912625231       -0.58373349779512
O            0.52657017102675        1.80460105099067       -0.17711344361007
C            1.30857846502135       -0.44430330389119       -0.22178235223439
C            2.19595511844477       -1.16319919728539        0.13713137111772
H           -2.12291273252392       -1.04312002783491       -1.39758222194617
H           -2.34254363083202       -1.70309291696435        0.23063289236377
H           -0.83076834698995       -2.00117277935872       -0.67557385879344
H            0.11734220306152        0.48928055989481       -1.67544738800219
H            0.06749530918923        1.93986487943433        0.66835397537789
H            2.97683481825497       -1.80627505673587        0.41755957164641

          :  Hamiltonian                  GFN2-xTB          :
         :: total energy             -21.811538315508 Eh    ::
         :: gradient norm              0.000088339740 Eh/a0 ::
         :: HOMO-LUMO gap              3.747519069990 eV    ::
         :: SCC energy               -22.124692399700 Eh    ::
         :: -> dispersion             -0.007767931674 Eh    ::
         :: -> Gsolv                  -0.010953459514 Eh    ::
         :: repulsion energy           0.313154084192 Eh    ::

    * Orbital Energies and Occupations

         #    Occupation            Energy/Eh            Energy/eV
      -------------------------------------------------------------
         1        2.0000           -0.7388662             -20.1056
       ...           ...                  ...                  ...
         7        2.0000           -0.5845216             -15.9056
         8        2.0000           -0.5777259             -15.7207
         9        2.0000           -0.5569478             -15.1553
        10        2.0000           -0.5450692             -14.8321
        11        2.0000           -0.5230664             -14.2334
        12        2.0000           -0.5100930             -13.8803
        13        2.0000           -0.5065022             -13.7826
        14        2.0000           -0.4948233             -13.4648
        15        2.0000           -0.4830722             -13.1451
        16        2.0000           -0.4533122             -12.3353
        17        2.0000           -0.4362161             -11.8700
        18        2.0000           -0.4284933             -11.6599
        19        2.0000           -0.4128021             -11.2329 (HOMO)
        20                         -0.2750833              -7.4854 (LUMO)
        21                         -0.1807553              -4.9186
        22                         -0.1699094              -4.6235
        23                          0.0342713               0.9326
        24                          0.0582196               1.5842
        25                          0.0867941               2.3618
        26                          0.1438440               3.9142
        27                          0.1539639               4.1896
        28                          0.1731325               4.7112
        29                          0.1943124               5.2875
        30                          0.2081773               5.6648
       ...                                ...                  ...
        34                          1.4005717              38.1115
      -------------------------------------------------------------
                  HL-Gap            0.1377188 Eh            3.7475 eV

     #   Z          covCN         q      C6AA      α(0)
     1   6 C        3.753    -0.145    23.356     6.891
     2   6 C        2.822     0.235    23.087     7.873
     3   8 O        0.857    -0.368    21.053     6.152
     4   6 C        3.729     0.112    18.839     6.196
     5   8 O        1.656    -0.441    21.665     6.283
     6   6 C        1.976    -0.031    31.894     9.120
     7   6 C        1.909    -0.091    33.602     9.362
     8   1 H        0.925     0.090     1.883     2.146
     9   1 H        0.925     0.080     1.977     2.199
    10   1 H        0.925     0.080     1.981     2.201
    11   1 H        0.923     0.072     2.066     2.248
    12   1 H        0.804     0.310     0.693     1.307
    13   1 H        0.928     0.098     1.801     2.098

Wiberg/Mayer (AO) data.
largest (>0.10) Wiberg bond orders for each atom

     #   Z sym  total        # sym  WBO       # sym  WBO       # sym  WBO
 ---------------------------------------------------------------------------
     1   6 C    3.991 --     2 C    1.022     9 H    0.978    10 H    0.963
                             8 H    0.945
     2   6 C    3.908 --     3 O    1.850     1 C    1.022     4 C    0.933
     3   8 O    2.089 --     2 C    1.850
     4   6 C    3.965 --     5 O    0.998     6 C    0.996     2 C    0.933
                            11 H    0.929
     5   8 O    1.968 --     4 C    0.998    12 H    0.872
     6   6 C    3.975 --     7 C    2.898     4 C    0.996
     7   6 C    3.971 --     6 C    2.898    13 H    0.966
     8   1 H    0.992 --     1 C    0.945
     9   1 H    0.994 --     1 C    0.978
    10   1 H    0.994 --     1 C    0.963
    11   1 H    0.995 --     4 C    0.929
    12   1 H    0.904 --     5 O    0.872
    13   1 H    0.990 --     7 C    0.966
 ---------------------------------------------------------------------------

molecular dipole:
                 x           y           z       tot (Debye)
 q only:       -0.055      -1.115      -0.599
   full:       -0.121      -1.262      -0.597       3.561

           -------------------------------------------------
          | TOTAL ENERGY              -21.811538315508 Eh   |
          | GRADIENT NORM               0.000088339740 Eh/α |
          | HOMO-LUMO GAP               3.747519069990 eV   |
           -------------------------------------------------

 * finished run on 2024/08/07 at 19:59:58.165
