   * xtb version 6.5.1 (fef0646) compiled by 'conda@b96dff2e9fd6' on 2023-01-04
          program call               : xtb crest_best.xyz --opt normal -c 0 --iterations 4000

   ID    Z sym.   atoms
    1    6 C      1, 3, 4, 6, 8-10, 12-19, 21-24, 28
    2    7 N      2, 7, 25, 27
    3   16 S      5, 11, 26
    4   34 Se     20
    5    1 H      29-38

          :  Hamiltonian                  GFN2-xTB          :
 * total energy  :   -72.5106243 Eh     change       -0.3956146E-08 Eh
 * total energy  :   -72.5175727 Eh     change       -0.6948457E-02 Eh
 * total energy  :   -72.5194186 Eh     change       -0.1845824E-02 Eh
 * total energy  :   -72.5199343 Eh     change       -0.5157598E-03 Eh
 * total energy  :   -72.5203111 Eh     change       -0.3767910E-03 Eh
 * total energy  :   -72.5204727 Eh     change       -0.1615830E-03 Eh
 * total energy  :   -72.5205922 Eh     change       -0.1195023E-03 Eh
 * total energy  :   -72.5206714 Eh     change       -0.7919659E-04 Eh
 * total energy  :   -72.5207203 Eh     change       -0.4893284E-04 Eh
 * total energy  :   -72.5207589 Eh     change       -0.3853848E-04 Eh
 * total energy  :   -72.5207915 Eh     change       -0.3262760E-04 Eh
 * total energy  :   -72.5208114 Eh     change       -0.1992589E-04 Eh
 * total energy  :   -72.5208207 Eh     change       -0.9224033E-05 Eh
 * total energy  :   -72.5208253 Eh     change       -0.4608686E-05 Eh
   *** GEOMETRY OPTIMIZATION CONVERGED AFTER 14 ITERATIONS ***

 final structure:
================
38
 xtb: 6.5.1 (fef0646)
C            7.62069695467114        0.37691356228367        0.12356222837580
N            7.30332528867890        1.61156044270967        0.30018009801628
C            5.97142771469259        1.78016288798971        0.32141367461841
C            5.22606412914440        0.63372321508044        0.15482728267874
S            6.29034519175637       -0.72176561924271       -0.03854267417891
C            3.79866127541591        0.51151210273548        0.13286123508745
N            3.06444434210559        1.59529839791762        0.31989272151695
C            1.74074012817889        1.54582338883545        0.29454912381536
C            0.96706796516054        0.40813138213215        0.06246556376446
C           -0.46041809203557        0.37522599724546        0.01833218295547
S           -1.26479470409570       -1.16182428989682        0.13971027215070
C           -2.85431588082100       -0.45124644918642        0.07784060471305
C           -4.02532850880847       -1.29498096121826        0.15239329060441
C           -5.31521255536653       -0.75932724829061        0.18458165210364
C           -6.42001546867847       -1.58440453465777        0.25211211345589
C           -6.26572190653342       -2.96066400822212        0.29117374046049
C           -4.99199180794122       -3.50670805866718        0.26304509700977
C           -3.88523324897976       -2.68643980388032        0.19413443569149
C           -2.73656174144719        0.91434613788095       -0.05907610403855
Se          -3.97112421199616        2.32217157263874       -0.23757530347766
C           -2.48267088872642        3.44325926415928       -0.39969185627125
C           -1.29725878831259        2.80744180795267       -0.30831338760497
C           -1.39268259578991        1.39851493180083       -0.10246156451845
C            1.72215163279518       -0.78263466673051       -0.10478037124156
N            1.27051610179305       -2.01867177803512       -0.30229462480044
S            2.52524761686835       -3.01723597032817       -0.43264389687663
N            3.70046971215422       -1.93681734623599       -0.24838596485380
C            3.15455774898786       -0.73589143325346       -0.07386350541817
H            8.63197653185542        0.02498200411750        0.07615750676595
H            5.55130310876743        2.75849822541298        0.46032065019492
H            1.26713460165571        2.49295054702864        0.50153785661329
H           -5.45876628209419        0.31324559743753        0.16348754860996
H           -7.40840217654366       -1.15010978932826        0.27541568276837
H           -7.13173078706168       -3.60301346745734        0.34376871676283
H           -4.86241979259613       -4.57842266278376        0.29394264117676
H           -2.89507041688665       -3.11787813075274        0.16881156651082
H           -2.62288682660799        4.49804776079500       -0.55575162985367
H           -0.36120418626040        3.32658888501459       -0.41198468689288

          :  Hamiltonian                  GFN2-xTB          :
         :: total energy             -72.520825261283 Eh    ::
         :: gradient norm              0.000744672113 Eh/a0 ::
         :: HOMO-LUMO gap              1.011059361254 eV    ::
         :: SCC energy               -73.570389300608 Eh    ::
         :: -> dispersion             -0.060172156340 Eh    ::
         :: repulsion energy           1.050190429995 Eh    ::

    * Orbital Energies and Occupations

         #    Occupation            Energy/Eh            Energy/eV
      -------------------------------------------------------------
         1        2.0000           -0.7741309             -21.0652
       ...           ...                  ...                  ...
        55        2.0000           -0.4368432             -11.8871
        56        2.0000           -0.4304997             -11.7145
        57        2.0000           -0.4286171             -11.6633
        58        2.0000           -0.4260364             -11.5930
        59        2.0000           -0.4210222             -11.4566
        60        2.0000           -0.4162357             -11.3263
        61        2.0000           -0.4158105             -11.3148
        62        2.0000           -0.4070685             -11.0769
        63        2.0000           -0.3980931             -10.8327
        64        2.0000           -0.3969062             -10.8004
        65        2.0000           -0.3936362             -10.7114
        66        2.0000           -0.3838004             -10.4437
        67        2.0000           -0.3629538              -9.8765 (HOMO)
        68                         -0.3257981              -8.8654 (LUMO)
        69                         -0.2860161              -7.7829
        70                         -0.2702766              -7.3546
        71                         -0.2502691              -6.8102
        72                         -0.2383699              -6.4864
        73                         -0.2335712              -6.3558
        74                         -0.2330885              -6.3427
        75                         -0.2258111              -6.1446
        76                         -0.2207963              -6.0082
        77                         -0.2080418              -5.6611
        78                         -0.2004633              -5.4549
       ...                                ...                  ...
       142                          0.9593873              26.1063
      -------------------------------------------------------------
                  HL-Gap            0.0371557 Eh            1.0111 eV

     #   Z          covCN         q      C6AA      α(0)
     1   6 C        3.000     0.070    26.430     8.433
     2   7 N        1.951    -0.206    26.284     7.602
     3   6 C        3.188     0.037    26.700     8.430
     4   6 C        2.987     0.010    27.779     8.646
     5  16 S        2.281    -0.003   141.178    19.998
     6   6 C        2.958     0.081    26.196     8.395
     7   7 N        1.844    -0.237    27.043     7.707
     8   6 C        2.896     0.044    27.008     8.521
     9   6 C        3.000    -0.016    28.392     8.741
    10   6 C        2.981     0.012    27.735     8.639
    11  16 S        2.412    -0.004   141.215    20.001
    12   6 C        2.984     0.012    27.738     8.639
    13   6 C        3.002     0.014    27.690     8.632
    14   6 C        2.924    -0.031    28.765     8.795
    15   6 C        2.918    -0.026    28.652     8.778
    16   6 C        2.920    -0.027    28.683     8.782
    17   6 C        2.918    -0.026    28.650     8.777
    18   6 C        2.928    -0.032    28.797     8.800
    19   6 C        3.180     0.001    27.579     8.573
    20  34 Se       2.214    -0.060   237.759    26.868
    21   6 C        2.920    -0.021    28.539     8.760
    22   6 C        3.043    -0.040    28.947     8.824
    23   6 C        3.283    -0.009    26.733     8.315
    24   6 C        3.361     0.082    23.366     7.586
    25   7 N        1.883    -0.265    27.748     7.809
    26  16 S        2.681     0.360   127.232    18.985
    27   7 N        1.858    -0.264    27.709     7.802
    28   6 C        3.348     0.063    24.012     7.729
    29   1 H        0.926     0.060     2.196     2.317
    30   1 H        0.926     0.068     2.111     2.272
    31   1 H        0.926     0.049     2.338     2.391
    32   1 H        0.926     0.055     2.256     2.349
    33   1 H        0.926     0.038     2.469     2.457
    34   1 H        0.926     0.037     2.486     2.466
    35   1 H        0.926     0.037     2.485     2.465
    36   1 H        0.926     0.046     2.368     2.406
    37   1 H        0.926     0.049     2.333     2.388
    38   1 H        0.926     0.041     2.433     2.439

Wiberg/Mayer (AO) data.
largest (>0.10) Wiberg bond orders for each atom

     #   Z sym  total        # sym  WBO       # sym  WBO       # sym  WBO
 ---------------------------------------------------------------------------
     1   6 C    3.926 --     2 N    1.615     5 S    1.200    29 H    0.964
     2   7 N    3.129 --     1 C    1.615     3 C    1.307     5 S    0.158
     3   6 C    3.943 --     4 C    1.484     2 N    1.307    30 H    0.958
     4   6 C    3.951 --     3 C    1.484     5 S    1.154     6 C    1.136
     5  16 S    2.681 --     1 C    1.200     4 C    1.154     2 N    0.158
     6   6 C    3.937 --     7 N    1.414    28 C    1.179     4 C    1.136
     7   7 N    3.077 --     6 C    1.414     8 C    1.402
     8   6 C    3.965 --     7 N    1.402     9 C    1.379    31 H    0.954
     9   6 C    3.961 --     8 C    1.379    24 C    1.190    10 C    1.171
    10   6 C    3.938 --    23 C    1.366     9 C    1.171    11 S    1.141
    11  16 S    2.669 --    12 C    1.142    10 C    1.141
    12   6 C    3.914 --    19 C    1.440    11 S    1.142    13 C    1.119
    13   6 C    3.988 --    14 C    1.357    18 C    1.354    12 C    1.119
    14   6 C    3.978 --    15 C    1.460    13 C    1.357    32 H    0.935
                            17 C    0.102
    15   6 C    3.991 --    14 C    1.460    16 C    1.427    33 H    0.970
                            18 C    0.104
    16   6 C    3.955 --    15 C    1.427    17 C    1.423    34 H    0.971
    17   6 C    3.991 --    18 C    1.468    16 C    1.423    35 H    0.970
                            14 C    0.102
    18   6 C    3.978 --    17 C    1.468    13 C    1.354    36 H    0.960
                            15 C    0.104
    19   6 C    3.958 --    12 C    1.440    23 C    1.210    20 Se   1.098
    20  34 Se   2.624 --    21 C    1.147    19 C    1.098    22 C    0.103
    21   6 C    3.951 --    22 C    1.692    20 Se   1.147    37 H    0.960
    22   6 C    3.983 --    21 C    1.692    23 C    1.183    38 H    0.953
                            20 Se   0.103
    23   6 C    3.968 --    10 C    1.366    19 C    1.210    22 C    1.183
    24   6 C    3.969 --    25 N    1.390     9 C    1.190    28 C    1.178
    25   7 N    3.107 --    26 S    1.418    24 C    1.390    27 N    0.161
    26  16 S    3.174 --    27 N    1.433    25 N    1.418
    27   7 N    3.091 --    26 S    1.433    28 C    1.388    25 N    0.161
    28   6 C    3.973 --    27 N    1.388     6 C    1.179    24 C    1.178
    29   1 H    0.996 --     1 C    0.964
    30   1 H    0.995 --     3 C    0.958
    31   1 H    0.995 --     8 C    0.954
    32   1 H    0.997 --    14 C    0.935
    33   1 H    0.998 --    15 C    0.970
    34   1 H    0.998 --    16 C    0.971
    35   1 H    0.998 --    17 C    0.970
    36   1 H    0.998 --    18 C    0.960
    37   1 H    0.996 --    21 C    0.960
    38   1 H    0.998 --    22 C    0.953
 ---------------------------------------------------------------------------

molecular dipole:
                 x           y           z       tot (Debye)
 q only:       -0.894      -0.932      -0.081
   full:       -0.988      -0.739      -0.174       3.168

           -------------------------------------------------
          | TOTAL ENERGY              -72.520825261283 Eh   |
          | GRADIENT NORM               0.000744672113 Eh/α |
          | HOMO-LUMO GAP               1.011059361254 eV   |
           -------------------------------------------------

 * finished run on 2024/06/14 at 02:58:27.439
