   * xtb version 6.7.0 (08769fc) compiled by 'albert@albert-system' on 2024-03-04

   ID    Z sym.   atoms
    1    7 N      1
    2    6 C      2-4, 6
    3    8 O      5, 7
    4    1 H      8-12

          program call               : /home/mvotokps/xtb-dist/bin/xtb crest_best.xyz --gfn 2 --alpb toluene --opt vtight -c 0 --iterations 4000
      * Solvation model:               ALPB
        Solvent                        toluene
        Solvent mass                       7.8110E+01 g/mol
          :  Hamiltonian                  GFN2-xTB          :
 * total energy  :   -22.0983244 Eh     change       -0.2769340E-10 Eh
 * total energy  :   -22.1062582 Eh     change       -0.7933863E-02 Eh
 * total energy  :   -22.1088173 Eh     change       -0.2559037E-02 Eh
 * total energy  :   -22.1090269 Eh     change       -0.2096395E-03 Eh
 * total energy  :   -22.1092871 Eh     change       -0.2601797E-03 Eh
 * total energy  :   -22.1093377 Eh     change       -0.5056759E-04 Eh
 * total energy  :   -22.1093747 Eh     change       -0.3707020E-04 Eh
 * total energy  :   -22.1094014 Eh     change       -0.2666391E-04 Eh
 * total energy  :   -22.1094390 Eh     change       -0.3757130E-04 Eh
 * total energy  :   -22.1094786 Eh     change       -0.3962772E-04 Eh
 * total energy  :   -22.1100368 Eh     change       -0.2475333E-04 Eh
 * total energy  :   -22.1100546 Eh     change       -0.1778365E-04 Eh
 * total energy  :   -22.1100858 Eh     change       -0.3125982E-04 Eh
 * total energy  :   -22.1101013 Eh     change       -0.1552736E-04 Eh
 * total energy  :   -22.1101088 Eh     change       -0.7483821E-05 Eh
 * total energy  :   -22.1101139 Eh     change       -0.5063351E-05 Eh
 * total energy  :   -22.1101149 Eh     change       -0.1035959E-05 Eh
 * total energy  :   -22.1101151 Eh     change       -0.2018395E-06 Eh
 * total energy  :   -22.1101152 Eh     change       -0.3268840E-07 Eh
   *** GEOMETRY OPTIMIZATION CONVERGED AFTER 34 ITERATIONS ***

 final structure:
================
12
 xtb: 6.7.0 (08769fc)
N           -2.53117772737519       -0.07028630629265       -0.46883517527531
C           -1.36750149140677       -0.04527740045682       -0.02736496188359
C           -0.30148725088579       -0.99922525239985        0.49254639852890
C            0.51043670452782        0.30903309422844        0.63748955174406
O           -0.60072906370614        1.06758274452756        0.13172904861662
C            1.71946902015037        0.36575024635172       -0.25722078910172
O            2.82154661024362        0.02811428661758        0.07027592786721
H           -2.95872970435201       -0.98782358865951       -0.51946387682825
H            0.08026093650442       -1.71125789227985       -0.23655255623267
H           -0.53773516478035       -1.50717784815860        1.42418198912997
H            0.76266178405445        0.59059052342696        1.66382094688960
H            1.48606099272556        0.72299021499503       -1.27729211985481

          :  Hamiltonian                  GFN2-xTB          :
         :: total energy             -22.110115154900 Eh    ::
         :: gradient norm              0.000142084812 Eh/a0 ::
         :: HOMO-LUMO gap              2.805689647996 eV    ::
         :: SCC energy               -22.343031989657 Eh    ::
         :: -> dispersion             -0.007064308660 Eh    ::
         :: -> Gsolv                  -0.010412777616 Eh    ::
         :: repulsion energy           0.232916834757 Eh    ::

    * Orbital Energies and Occupations

         #    Occupation            Energy/Eh            Energy/eV
      -------------------------------------------------------------
         1        2.0000           -0.7558072             -20.5666
       ...           ...                  ...                  ...
         7        2.0000           -0.6136864             -16.6993
         8        2.0000           -0.5983731             -16.2826
         9        2.0000           -0.5963059             -16.2263
        10        2.0000           -0.5722874             -15.5727
        11        2.0000           -0.5587883             -15.2054
        12        2.0000           -0.5368661             -14.6089
        13        2.0000           -0.5288563             -14.3909
        14        2.0000           -0.5124660             -13.9449
        15        2.0000           -0.5070066             -13.7964
        16        2.0000           -0.4885311             -13.2936
        17        2.0000           -0.4521124             -12.3026
        18        2.0000           -0.4270201             -11.6198
        19        2.0000           -0.4021746             -10.9437 (HOMO)
        20                         -0.2990674              -8.1380 (LUMO)
        21                         -0.2345917              -6.3836
        22                         -0.0419288              -1.1409
        23                         -0.0196243              -0.5340
        24                          0.0547402               1.4896
        25                          0.0676917               1.8420
        26                          0.1006236               2.7381
        27                          0.1148095               3.1241
        28                          0.1714883               4.6664
        29                          0.2185530               5.9471
        30                          0.2532928               6.8924
       ...                                ...                  ...
        33                          0.6520006              17.7418
      -------------------------------------------------------------
                  HL-Gap            0.1031072 Eh            2.8057 eV

     #   Z          covCN         q      C6AA      α(0)
     1   7 N        1.771    -0.344    29.741     8.075
     2   6 C        3.181     0.256    22.352     7.717
     3   6 C        3.846    -0.090    22.185     6.700
     4   6 C        4.163     0.094    18.950     6.183
     5   8 O        1.747    -0.269    18.458     5.801
     6   6 C        2.756     0.209    23.563     7.949
     7   8 O        0.856    -0.311    19.975     5.992
     8   1 H        0.860     0.174     1.250     1.751
     9   1 H        0.925     0.070     2.082     2.256
    10   1 H        0.925     0.080     1.974     2.197
    11   1 H        0.924     0.077     2.006     2.215
    12   1 H        0.922     0.053     2.289     2.366

Wiberg/Mayer (AO) data.
largest (>0.10) Wiberg bond orders for each atom

     #   Z sym  total        # sym  WBO       # sym  WBO       # sym  WBO
 ---------------------------------------------------------------------------
     1   7 N    3.046 --     2 C    1.855     8 H    0.936     5 O    0.136
     2   6 C    3.927 --     1 N    1.855     5 O    1.076     3 C    0.956
     3   6 C    3.982 --     9 H    0.965    10 H    0.962     2 C    0.956
                             4 C    0.952
     4   6 C    3.936 --     6 C    0.991     5 O    0.953     3 C    0.952
                            11 H    0.950
     5   8 O    2.246 --     2 C    1.076     4 C    0.953     1 N    0.136
     6   6 C    3.912 --     7 O    1.934     4 C    0.991    12 H    0.928
     7   8 O    2.101 --     6 C    1.934
     8   1 H    0.970 --     1 N    0.936
     9   1 H    0.995 --     3 C    0.965
    10   1 H    0.994 --     3 C    0.962
    11   1 H    0.994 --     4 C    0.950
    12   1 H    0.997 --     6 C    0.928
 ---------------------------------------------------------------------------

molecular dipole:
                 x           y           z       tot (Debye)
 q only:       -0.330      -0.789       0.242
   full:       -0.190      -1.041       0.347       2.831

           -------------------------------------------------
          | TOTAL ENERGY              -22.110115154900 Eh   |
          | GRADIENT NORM               0.000142084812 Eh/α |
          | HOMO-LUMO GAP               2.805689647996 eV   |
           -------------------------------------------------

 * finished run on 2024/08/07 at 20:11:23.884
