   * xtb version 6.5.1 (fef0646) compiled by 'conda@b96dff2e9fd6' on 2023-01-04
          program call               : xtb crest_best.xyz --opt normal -c 0 --iterations 4000

   ID    Z sym.   atoms
    1    6 C      1, 3-8, 10-14, 16-28, 30-32
    2   16 S      2, 9, 29
    3    7 N      15
    4    1 H      33-47

          :  Hamiltonian                  GFN2-xTB          :
 * total energy  :   -80.0431861 Eh     change       -0.4571417E-07 Eh
 * total energy  :   -80.0534185 Eh     change       -0.1023236E-01 Eh
 * total energy  :   -80.0579268 Eh     change       -0.4508244E-02 Eh
 * total energy  :   -80.0589683 Eh     change       -0.1041526E-02 Eh
 * total energy  :   -80.0597274 Eh     change       -0.7590747E-03 Eh
 * total energy  :   -80.0601468 Eh     change       -0.4194336E-03 Eh
 * total energy  :   -80.0605086 Eh     change       -0.3618151E-03 Eh
 * total energy  :   -80.0608150 Eh     change       -0.3064016E-03 Eh
 * total energy  :   -80.0610530 Eh     change       -0.2379499E-03 Eh
 * total energy  :   -80.0612529 Eh     change       -0.1999058E-03 Eh
 * total energy  :   -80.0678300 Eh     change       -0.1424083E-04 Eh
 * total energy  :   -80.0678415 Eh     change       -0.1154991E-04 Eh
 * total energy  :   -80.0678619 Eh     change       -0.2034427E-04 Eh
 * total energy  :   -80.0678791 Eh     change       -0.1723290E-04 Eh
 * total energy  :   -80.0678959 Eh     change       -0.1676942E-04 Eh
 * total energy  :   -80.0679164 Eh     change       -0.2052585E-04 Eh
 * total energy  :   -80.0679316 Eh     change       -0.1517309E-04 Eh
 * total energy  :   -80.0679369 Eh     change       -0.5340954E-05 Eh
 * total energy  :   -80.0679417 Eh     change       -0.4810087E-05 Eh
   *** GEOMETRY OPTIMIZATION CONVERGED AFTER 44 ITERATIONS ***

 final structure:
================
47
 xtb: 6.5.1 (fef0646)
C            3.83053567864014        3.35814814032977       -0.94977165957561
S            4.07958373449138        1.68027687997845       -1.22598527567706
C            2.64096215558972        1.22239236371342       -0.34664818325241
C            2.15016591053099       -0.14246260617737       -0.24305873708105
C            0.81171296155448       -0.33870055577689       -0.42099509701544
C            0.21318765883182       -1.61908001472227       -0.33018728794723
C           -1.18318661131149       -1.72709264771489       -0.46917681154906
C           -1.70130024172433       -2.98254195148904       -0.35430018008210
S           -3.59229536556209       -3.19864019058366       -0.43654891143480
C           -4.19608600699349       -1.72701300387132       -0.57188435259763
C           -5.71761290475342        0.08401151293881       -1.37564412505536
C           -5.77795198527898        1.42508912187606       -1.22635983148447
C           -4.70497780374009        1.84083051407495       -0.36136122696824
C           -4.09379434882955        2.91486771262863        0.22841383049067
N           -3.03814840778100        2.43328030340513        0.95157905507089
C           -2.95013016805567        1.07421571570975        0.84389593003327
C           -3.97261089888585        0.67633930352187        0.02743638237265
C           -4.58996620102148       -0.47581194625543       -0.62340146242066
C           -0.95542009876257       -4.06153914707400       -0.08957316694210
C            0.38793109328923       -4.01494955914305        0.09537186569253
C            1.02060513748329       -2.75677513716675       -0.07554630944991
C            2.44491609712476       -2.57567838371654        0.05492592687088
C            3.31553406790877       -3.66287822258553        0.23651984643494
C            4.66115592807194       -3.48470882668439        0.43712567325530
C            5.19146643946244       -2.19764344387195        0.48772530048931
C            4.37286005636803       -1.11614671868178        0.28377796602913
C            3.00227133925624       -1.27092269905974        0.02451765561515
C            2.02114436458634        2.36084746308437        0.09468489182289
S            0.58032132797147        2.66095474352361        1.02664117734311
C            0.90279877283852        4.37869385515447        0.98206112169907
C            2.01487958501686        4.72094983210331        0.30691820158910
C            2.69533472545466        3.58143910282969       -0.22380399260114
H            4.53636409858856        4.06741651857736       -1.33130760635174
H            0.16771905150068        0.49799140282478       -0.65143229952109
H           -1.80992646570713       -0.85907137252632       -0.61707616199448
H           -6.37107064624195       -0.53223429932285       -1.96537519900453
H           -6.50427395118524        2.07985971698400       -1.67277179043685
H           -4.31183394950357        3.96379087220650        0.19522569363162
H           -2.39648460762041        2.99776044411119        1.48306886022758
H           -2.18265618043693        0.53078710808211        1.35880276333024
H            0.95220665142360       -4.89244412667792        0.36567352812594
H            2.92580798965567       -4.66774285548987        0.21320343035154
H            5.30667995945759       -4.34031170077815        0.56958033276327
H            6.24342108855914       -2.05199558335629        0.68266830689752
H            4.79517973103533       -0.12525251292237        0.33369365778791
H            0.21236698755117        5.03252417674941        1.47991821019023
H            2.35989718413070        5.73102830264141        0.18141447571891

          :  Hamiltonian                  GFN2-xTB          :
         :: total energy             -80.067941701420 Eh    ::
         :: gradient norm              0.000736267806 Eh/a0 ::
         :: HOMO-LUMO gap              0.582307903534 eV    ::
         :: SCC energy               -81.471727155806 Eh    ::
         :: -> dispersion             -0.071713370196 Eh    ::
         :: repulsion energy           1.403587391007 Eh    ::

    * Orbital Energies and Occupations

         #    Occupation            Energy/Eh            Energy/eV
      -------------------------------------------------------------
         1        2.0000           -0.7411535             -20.1678
       ...           ...                  ...                  ...
        63        2.0000           -0.4259548             -11.5908
        64        2.0000           -0.4242938             -11.5456
        65        2.0000           -0.4230954             -11.5130
        66        2.0000           -0.4185236             -11.3886
        67        2.0000           -0.4139621             -11.2645
        68        2.0000           -0.4010671             -10.9136
        69        2.0000           -0.3986314             -10.8473
        70        2.0000           -0.3879364             -10.5563
        71        2.0000           -0.3853714             -10.4865
        72        2.0000           -0.3730165             -10.1503
        73        2.0000           -0.3650934              -9.9347
        74        2.0000           -0.3581004              -9.7444
        75        2.0000           -0.3285650              -8.9407 (HOMO)
        76        0.0000           -0.3071656              -8.3584 (LUMO)
        77                         -0.2793801              -7.6023
        78                         -0.2652827              -7.2187
        79                         -0.2596197              -7.0646
        80                         -0.2499295              -6.8009
        81                         -0.2277778              -6.1981
        82                         -0.2252162              -6.1284
        83                         -0.2117538              -5.7621
        84                         -0.2051187              -5.5816
        85                         -0.2029372              -5.5222
        86                         -0.1920370              -5.2256
       ...                                ...                  ...
       158                          1.0432847              28.3892
      -------------------------------------------------------------
                  HL-Gap            0.0213994 Eh            0.5823 eV

     #   Z          covCN         q      C6AA      α(0)
     1   6 C        2.932    -0.035    28.859     8.810
     2  16 S        2.356    -0.016   141.707    20.035
     3   6 C        2.991     0.005    27.896     8.664
     4   6 C        2.980     0.002    27.987     8.678
     5   6 C        2.933    -0.040    28.985     8.829
     6   6 C        2.998     0.008    27.823     8.653
     7   6 C        2.945    -0.040    29.006     8.833
     8   6 C        2.972     0.039    27.125     8.543
     9  16 S        1.982    -0.021   141.932    20.051
    10   6 C        1.966     0.003    30.991     8.990
    11   6 C        3.012    -0.042    29.020     8.837
    12   6 C        2.973    -0.034    28.840     8.809
    13   6 C        3.208    -0.026    28.013     8.618
    14   6 C        2.995    -0.014    28.346     8.734
    15   7 N        2.835    -0.080    22.796     7.091
    16   6 C        2.985    -0.012    28.298     8.726
    17   6 C        3.203    -0.029    28.110     8.637
    18   6 C        3.026     0.010    27.757     8.642
    19   6 C        2.033    -0.095    33.607     9.363
    20   6 C        2.923    -0.022    28.551     8.762
    21   6 C        2.989     0.004    27.934     8.670
    22   6 C        2.979     0.010    27.780     8.646
    23   6 C        2.922    -0.034    28.837     8.806
    24   6 C        2.917    -0.030    28.740     8.791
    25   6 C        2.917    -0.030    28.742     8.791
    26   6 C        2.921    -0.036    28.889     8.814
    27   6 C        2.984     0.009    27.815     8.651
    28   6 C        3.219     0.017    26.915     8.436
    29  16 S        2.200    -0.091   144.835    20.255
    30   6 C        2.940    -0.007    28.200     8.709
    31   6 C        3.038    -0.046    29.104     8.849
    32   6 C        3.319    -0.007    26.055     8.128
    33   1 H        0.927     0.048     2.345     2.395
    34   1 H        0.926     0.038     2.479     2.462
    35   1 H        0.926     0.048     2.350     2.397
    36   1 H        0.926     0.028     2.621     2.532
    37   1 H        0.926     0.027     2.623     2.533
    38   1 H        0.926     0.030     2.585     2.514
    39   1 H        0.860     0.161     1.327     1.805
    40   1 H        0.926     0.034     2.537     2.491
    41   1 H        0.926     0.041     2.433     2.439
    42   1 H        0.926     0.038     2.476     2.461
    43   1 H        0.926     0.033     2.551     2.498
    44   1 H        0.926     0.032     2.554     2.499
    45   1 H        0.926     0.040     2.452     2.449
    46   1 H        0.926     0.040     2.447     2.446
    47   1 H        0.926     0.040     2.449     2.447

Wiberg/Mayer (AO) data.
largest (>0.10) Wiberg bond orders for each atom

     #   Z sym  total        # sym  WBO       # sym  WBO       # sym  WBO
 ---------------------------------------------------------------------------
     1   6 C    3.932 --    32 C    1.498     2 S    1.209    33 H    0.968
                             3 C    0.119
     2  16 S    2.653 --     1 C    1.209     3 C    1.131
     3   6 C    3.943 --    28 C    1.494     2 S    1.131     4 C    1.084
                             1 C    0.119
     4   6 C    3.986 --     5 C    1.550    27 C    1.161     3 C    1.084
     5   6 C    3.988 --     4 C    1.550     6 C    1.219    34 H    0.962
     6   6 C    3.988 --     7 C    1.300    21 C    1.277     5 C    1.219
     7   6 C    3.966 --     8 C    1.449     6 C    1.300    35 H    0.949
                            20 C    0.118
     8   6 C    3.944 --    19 C    1.567     7 C    1.449     9 S    0.735
     9  16 S    2.755 --    10 C    1.594     8 C    0.735    19 C    0.129
    10   6 C    3.900 --    18 C    1.699     9 S    1.594    19 C    0.326
    11   6 C    3.953 --    12 C    1.725    18 C    1.059    36 H    0.972
    12   6 C    3.962 --    11 C    1.725    13 C    1.126    37 H    0.969
    13   6 C    3.973 --    14 C    1.490    17 C    1.197    12 C    1.126
    14   6 C    3.923 --    13 C    1.490    15 N    1.219    38 H    0.970
                            16 C    0.118
    15   7 N    3.578 --    16 C    1.220    14 C    1.219    39 H    0.946
    16   6 C    3.932 --    17 C    1.505    15 N    1.220    40 H    0.968
                            14 C    0.118
    17   6 C    3.931 --    16 C    1.505    13 C    1.197    18 C    1.022
    18   6 C    3.971 --    10 C    1.699    11 C    1.059    17 C    1.022
    19   6 C    3.717 --     8 C    1.567    20 C    1.499    10 C    0.326
                             9 S    0.129
    20   6 C    3.976 --    19 C    1.499    21 C    1.287    41 H    0.957
                             7 C    0.118
    21   6 C    3.940 --    20 C    1.287     6 C    1.277    22 C    1.161
    22   6 C    3.980 --    23 C    1.330    27 C    1.281    21 C    1.161
    23   6 C    3.988 --    24 C    1.509    22 C    1.330    42 H    0.962
                            26 C    0.111
    24   6 C    3.985 --    23 C    1.509    25 C    1.364    43 H    0.971
    25   6 C    3.981 --    26 C    1.508    24 C    1.364    44 H    0.971
    26   6 C    3.983 --    25 C    1.508    27 C    1.328    45 H    0.959
                            23 C    0.111
    27   6 C    3.983 --    26 C    1.328    22 C    1.281     4 C    1.161
    28   6 C    3.946 --     3 C    1.494    32 C    1.179    29 S    1.073
    29  16 S    2.491 --    30 C    1.115    28 C    1.073    31 C    0.106
    30   6 C    3.957 --    31 C    1.719    29 S    1.115    46 H    0.970
    31   6 C    3.987 --    30 C    1.719    32 C    1.156    47 H    0.962
                            29 S    0.106
    32   6 C    3.983 --     1 C    1.498    28 C    1.179    31 C    1.156
    33   1 H    0.997 --     1 C    0.968
    34   1 H    0.997 --     5 C    0.962
    35   1 H    0.997 --     7 C    0.949
    36   1 H    0.997 --    11 C    0.972
    37   1 H    0.994 --    12 C    0.969
    38   1 H    0.998 --    14 C    0.970
    39   1 H    0.973 --    15 N    0.946
    40   1 H    0.999 --    16 C    0.968
    41   1 H    0.992 --    20 C    0.957
    42   1 H    0.998 --    23 C    0.962
    43   1 H    0.998 --    24 C    0.971
    44   1 H    0.998 --    25 C    0.971
    45   1 H    0.997 --    26 C    0.959
    46   1 H    0.997 --    30 C    0.970
    47   1 H    0.998 --    31 C    0.962
 ---------------------------------------------------------------------------

molecular dipole:
                 x           y           z       tot (Debye)
 q only:        0.465       0.880       0.294
   full:        0.875       1.620       0.391       4.784

           -------------------------------------------------
          | TOTAL ENERGY              -80.067941701420 Eh   |
          | GRADIENT NORM               0.000736267806 Eh/α |
          | HOMO-LUMO GAP               0.582307903534 eV   |
           -------------------------------------------------

 * finished run on 2024/06/14 at 03:02:52.250
