   * xtb version 6.7.1 (edcfbbe) compiled by 'albert@albert-system' on 2024-07-22

   ID    Z sym.   atoms
    1    6 C      1-3
    2    8 O      4
    3    1 H      5-10

          program call               : xtb crest_best.xyz --gfn 2 --alpb toluene --opt vtight -c 0 --iterations 40
      * Solvation model:               ALPB
        Solvent                        toluene
        Solvent mass                       7.8110E+01 g/mol
          :  Hamiltonian                  GFN2-xTB          :
 * total energy  :   -13.5387429 Eh     change       -0.1322498E-09 Eh
 * total energy  :   -13.5399494 Eh     change       -0.1206519E-02 Eh
 * total energy  :   -13.5401801 Eh     change       -0.2307275E-03 Eh
 * total energy  :   -13.5403298 Eh     change       -0.1496723E-03 Eh
 * total energy  :   -13.5404451 Eh     change       -0.1152866E-03 Eh
 * total energy  :   -13.5405763 Eh     change       -0.1312479E-03 Eh
 * total energy  :   -13.5407178 Eh     change       -0.1414438E-03 Eh
 * total energy  :   -13.5408460 Eh     change       -0.1282600E-03 Eh
 * total energy  :   -13.5409444 Eh     change       -0.9839863E-04 Eh
 * total energy  :   -13.5410353 Eh     change       -0.9083654E-04 Eh
 * total energy  :   -13.5413451 Eh     change       -0.2565417E-06 Eh
 * total energy  :   -13.5413454 Eh     change       -0.2415119E-06 Eh
 * total energy  :   -13.5413456 Eh     change       -0.2202651E-06 Eh
 * total energy  :   -13.5413458 Eh     change       -0.1948090E-06 Eh
 * total energy  :   -13.5413460 Eh     change       -0.1740604E-06 Eh
 * total energy  :   -13.5413461 Eh     change       -0.1568769E-06 Eh
 * total energy  :   -13.5413462 Eh     change       -0.1411214E-06 Eh
 * total energy  :   -13.5413464 Eh     change       -0.1286458E-06 Eh
 * total energy  :   -13.5413465 Eh     change       -0.8566804E-07 Eh
   *** GEOMETRY OPTIMIZATION CONVERGED AFTER 44 ITERATIONS ***

 final structure:
================
10
 xtb: 6.7.1 (edcfbbe)
C           -1.26166358453542        0.68665097067903       -0.07355004468767
C            0.00168811919627       -0.13551792502393       -0.05657376811496
C            1.26761996671324        0.66806060040638        0.09855085369595
O           -0.00022210613660       -1.33933318948170       -0.15874307821117
H           -2.10848634165608        0.07473268707529       -0.37370019680282
H           -1.15513781192284        1.53353896807112       -0.74669366244766
H           -1.44306971334066        1.07244471051522        0.92850918501463
H            2.11309065473248        0.01140638416122        0.28726371684001
H            1.16470074984471        1.38672932396070        0.90766343666622
H            1.44838598520492        1.22013584023664       -0.82252165485251

          :  Hamiltonian                  GFN2-xTB          :
         :: total energy             -13.541346462880 Eh    ::
         :: gradient norm              0.000026469501 Eh/a0 ::
         :: HOMO-LUMO gap              4.083690903483 eV    ::
         :: SCC energy               -13.712777024162 Eh    ::
         :: -> dispersion             -0.003900099437 Eh    ::
         :: -> Gsolv                  -0.007492818470 Eh    ::
         :: repulsion energy           0.171430561282 Eh    ::

    * Orbital Energies and Occupations

         #    Occupation            Energy/Eh            Energy/eV
      -------------------------------------------------------------
         1        2.0000           -0.7132515             -19.4086
         2        2.0000           -0.6415285             -17.4569
         3        2.0000           -0.6193121             -16.8523
         4        2.0000           -0.5722073             -15.5706
         5        2.0000           -0.5469597             -14.8835
         6        2.0000           -0.5380046             -14.6399
         7        2.0000           -0.5223176             -14.2130
         8        2.0000           -0.4820788             -13.1180
         9        2.0000           -0.4770469             -12.9811
        10        2.0000           -0.4756519             -12.9431
        11        2.0000           -0.4695986             -12.7784
        12        2.0000           -0.4009384             -10.9101 (HOMO)
        13                         -0.2508655              -6.8264 (LUMO)
        14                          0.0868481               2.3633
        15                          0.1457480               3.9660
        16                          0.1669446               4.5428
        17                          0.1798178               4.8931
        18                          0.1926570               5.2425
        19                          0.2065763               5.6212
        20                          0.2152699               5.8578
        21                          0.2724692               7.4143
        22                          0.6205679              16.8865
      -------------------------------------------------------------
                  HL-Gap            0.1500729 Eh            4.0837 eV

     #   Z          covCN         q      C6AA      α(0)
     1   6 C        3.754    -0.142    23.301     6.883
     2   6 C        2.808     0.248    22.841     7.830
     3   6 C        3.754    -0.142    23.301     6.883
     4   8 O        0.857    -0.385    21.386     6.200
     5   1 H        0.925     0.065     2.140     2.288
     6   1 H        0.925     0.070     2.081     2.256
     7   1 H        0.925     0.075     2.029     2.228
     8   1 H        0.925     0.065     2.140     2.288
     9   1 H        0.925     0.071     2.080     2.255
    10   1 H        0.925     0.075     2.030     2.228

Wiberg/Mayer (AO) data.
largest (>0.10) Wiberg bond orders for each atom

     #   Z sym  total        # sym  WBO       # sym  WBO       # sym  WBO
 ---------------------------------------------------------------------------
     1   6 C    3.994 --     2 C    1.007     5 H    0.983     6 H    0.967
                             7 H    0.955
     2   6 C    3.912 --     4 O    1.851     1 C    1.007     3 C    1.007
     3   6 C    3.994 --     2 C    1.007     8 H    0.983     9 H    0.967
                            10 H    0.955
     4   8 O    2.054 --     2 C    1.851
     5   1 H    0.996 --     1 C    0.983
     6   1 H    0.995 --     1 C    0.967
     7   1 H    0.994 --     1 C    0.955
     8   1 H    0.996 --     3 C    0.983
     9   1 H    0.995 --     3 C    0.967
    10   1 H    0.994 --     3 C    0.955
 ---------------------------------------------------------------------------

molecular dipole:
                 x           y           z       tot (Debye)
 q only:        0.002       1.272       0.108
   full:        0.002       1.454       0.124       3.709

           -------------------------------------------------
          | TOTAL ENERGY              -13.541346462880 Eh   |
          | GRADIENT NORM               0.000026469501 Eh/α |
          | HOMO-LUMO GAP               4.083690903483 eV   |
           -------------------------------------------------

 * finished run on 2024/08/07 at 20:42:15.998
