   * xtb version 6.7.1 (edcfbbe) compiled by 'albert@albert-system' on 2024-07-22

   ID    Z sym.   atoms
    1    6 C      1-3, 5, 6
    2    8 O      4
    3    7 N      7
    4    1 H      8-14

          program call               : xtb crest_best.xyz --gfn 2 --alpb toluene --opt vtight -c 0 --iterations 40
      * Solvation model:               ALPB
        Solvent                        toluene
        Solvent mass                       7.8110E+01 g/mol
          :  Hamiltonian                  GFN2-xTB          :
 * total energy  :   -21.2000232 Eh     change       -0.4920153E-10 Eh
 * total energy  :   -21.2021955 Eh     change       -0.2172286E-02 Eh
 * total energy  :   -21.2025212 Eh     change       -0.3257156E-03 Eh
 * total energy  :   -21.2030041 Eh     change       -0.4829323E-03 Eh
 * total energy  :   -21.2032086 Eh     change       -0.2044706E-03 Eh
 * total energy  :   -21.2034077 Eh     change       -0.1990360E-03 Eh
 * total energy  :   -21.2035978 Eh     change       -0.1901933E-03 Eh
 * total energy  :   -21.2037882 Eh     change       -0.1903396E-03 Eh
 * total energy  :   -21.2039010 Eh     change       -0.1128196E-03 Eh
 * total energy  :   -21.2039706 Eh     change       -0.6955543E-04 Eh
 * total energy  :   -21.2040117 Eh     change       -0.4114243E-04 Eh
 * total energy  :   -21.2040149 Eh     change       -0.3169213E-05 Eh
 * total energy  :   -21.2040399 Eh     change       -0.2499826E-04 Eh
 * total energy  :   -21.2040445 Eh     change       -0.4604866E-05 Eh
 * total energy  :   -21.2040508 Eh     change       -0.6333118E-05 Eh
 * total energy  :   -21.2040524 Eh     change       -0.1577663E-05 Eh
 * total energy  :   -21.2040528 Eh     change       -0.3877464E-06 Eh
 * total energy  :   -21.2040528 Eh     change       -0.6449329E-07 Eh
   *** GEOMETRY OPTIMIZATION CONVERGED AFTER 18 ITERATIONS ***

 final structure:
================
14
 xtb: 6.7.1 (edcfbbe)
C            0.52825813468223       -1.85437209808970        0.19745772591567
C            0.91238366777951       -0.58664688886037       -0.54031770944897
C            1.71230580895173        0.46257193212859        0.24657320611748
O            0.69924887041658        1.45458908083471        0.04048310849513
C           -0.15518275451219        0.53255610670910       -0.64960753568432
C           -1.40208849443813        0.29121250170900        0.04246115899583
N           -2.38166150615258        0.10032983789477        0.60133895980320
H            1.41201878965197       -2.47104988525305        0.34732030914563
H           -0.20021883014150       -2.42188032347682       -0.37850342872799
H            0.09362614899367       -1.62392362018463        1.16831371669160
H            1.35164635271688       -0.82609214055384       -1.50997270584777
H            2.66687786724428        0.77111595995489       -0.18620213422853
H            1.84112255539902        0.23801590125126        1.30931781082492
H           -0.38307070989156        0.87527570033606       -1.66870636315190

          :  Hamiltonian                  GFN2-xTB          :
         :: total energy             -21.204052842223 Eh    ::
         :: gradient norm              0.000157557972 Eh/a0 ::
         :: HOMO-LUMO gap              4.886726711182 eV    ::
         :: SCC energy               -21.497902905730 Eh    ::
         :: -> dispersion             -0.008777596143 Eh    ::
         :: -> Gsolv                  -0.010475775777 Eh    ::
         :: repulsion energy           0.293850063507 Eh    ::

    * Orbital Energies and Occupations

         #    Occupation            Energy/Eh            Energy/eV
      -------------------------------------------------------------
         1        2.0000           -0.7258555             -19.7515
       ...           ...                  ...                  ...
         7        2.0000           -0.5812796             -15.8174
         8        2.0000           -0.5725865             -15.5809
         9        2.0000           -0.5601742             -15.2431
        10        2.0000           -0.5279538             -14.3664
        11        2.0000           -0.5158429             -14.0368
        12        2.0000           -0.5092977             -13.8587
        13        2.0000           -0.4944522             -13.4547
        14        2.0000           -0.4911710             -13.3654
        15        2.0000           -0.4788580             -13.0304
        16        2.0000           -0.4598920             -12.5143
        17        2.0000           -0.4527293             -12.3194
        18        2.0000           -0.4469546             -12.1623
        19        2.0000           -0.4155879             -11.3087 (HOMO)
        20                         -0.2360040              -6.4220 (LUMO)
        21                         -0.2245510              -6.1103
        22                         -0.0245944              -0.6692
        23                         -0.0109662              -0.2984
        24                          0.0618585               1.6833
        25                          0.0655509               1.7837
        26                          0.0878614               2.3908
        27                          0.1147109               3.1214
        28                          0.1464608               3.9854
        29                          0.1689643               4.5978
        30                          0.1829893               4.9794
       ...                                ...                  ...
        35                          1.1204484              30.4890
      -------------------------------------------------------------
                  HL-Gap            0.1795839 Eh            4.8867 eV

     #   Z          covCN         q      C6AA      α(0)
     1   6 C        3.751    -0.112    22.707     6.796
     2   6 C        3.888    -0.016    20.813     6.486
     3   6 C        4.014     0.080    19.181     6.222
     4   8 O        1.735    -0.327    19.459     5.956
     5   6 C        4.067     0.122    18.526     6.114
     6   6 C        1.892     0.116    28.245     8.583
     7   7 N        0.911    -0.222    25.857     7.354
     8   1 H        0.925     0.058     2.227     2.334
     9   1 H        0.925     0.052     2.290     2.367
    10   1 H        0.925     0.052     2.300     2.372
    11   1 H        0.924     0.048     2.340     2.392
    12   1 H        0.924     0.044     2.392     2.418
    13   1 H        0.924     0.047     2.361     2.403
    14   1 H        0.923     0.058     2.217     2.329

Wiberg/Mayer (AO) data.
largest (>0.10) Wiberg bond orders for each atom

     #   Z sym  total        # sym  WBO       # sym  WBO       # sym  WBO
 ---------------------------------------------------------------------------
     1   6 C    3.992 --     2 C    1.020    10 H    0.984     9 H    0.982
                             8 H    0.981
     2   6 C    3.984 --     1 C    1.020     3 C    0.991    11 H    0.972
                             5 C    0.945
     3   6 C    3.943 --     2 C    0.991    12 H    0.975    13 H    0.973
                             4 O    0.971
     4   8 O    2.035 --     3 C    0.971     5 C    0.959
     5   6 C    3.954 --     6 C    1.030     4 O    0.959     2 C    0.945
                            14 H    0.939
     6   6 C    3.942 --     7 N    2.858     5 C    1.030
     7   7 N    3.011 --     6 C    2.858
     8   1 H    0.997 --     1 C    0.981
     9   1 H    0.997 --     1 C    0.982
    10   1 H    0.997 --     1 C    0.984
    11   1 H    0.998 --     2 C    0.972
    12   1 H    0.998 --     3 C    0.975
    13   1 H    0.998 --     3 C    0.973
    14   1 H    0.997 --     5 C    0.939
 ---------------------------------------------------------------------------

molecular dipole:
                 x           y           z       tot (Debye)
 q only:        0.953      -0.834      -0.514
   full:        1.347      -0.759      -0.795       4.419

           -------------------------------------------------
          | TOTAL ENERGY              -21.204052842223 Eh   |
          | GRADIENT NORM               0.000157557972 Eh/α |
          | HOMO-LUMO GAP               4.886726711182 eV   |
           -------------------------------------------------

 * finished run on 2024/08/07 at 21:32:09.057
