   * xtb version 6.7.0 (08769fc) compiled by 'albert@albert-system' on 2024-03-04

   ID    Z sym.   atoms
    1    7 N      1, 3, 5
    2    6 C      2, 4, 6
    3    8 O      7
    4    1 H      8-12

          program call               : /home/mvotokps/xtb-dist/bin/xtb crest_best.xyz --gfn 2 --alpb toluene --opt vtight -c 0 --iterations 4000
      * Solvation model:               ALPB
        Solvent                        toluene
        Solvent mass                       7.8110E+01 g/mol
          :  Hamiltonian                  GFN2-xTB          :
 * total energy  :   -21.7356581 Eh     change       -0.1392664E-09 Eh
 * total energy  :   -21.7442853 Eh     change       -0.8627165E-02 Eh
 * total energy  :   -21.7474681 Eh     change       -0.3182813E-02 Eh
 * total energy  :   -21.7478168 Eh     change       -0.3486767E-03 Eh
 * total energy  :   -21.7479305 Eh     change       -0.1137590E-03 Eh
 * total energy  :   -21.7479566 Eh     change       -0.2611117E-04 Eh
 * total energy  :   -21.7479682 Eh     change       -0.1156420E-04 Eh
 * total energy  :   -21.7479710 Eh     change       -0.2788214E-05 Eh
 * total energy  :   -21.7479715 Eh     change       -0.5066240E-06 Eh
 * total energy  :   -21.7479715 Eh     change       -0.6235047E-07 Eh
   *** GEOMETRY OPTIMIZATION CONVERGED AFTER 10 ITERATIONS ***

 final structure:
================
12
 xtb: 6.7.0 (08769fc)
N           -2.68161049098001       -0.37665948547706       -0.00026620160427
C           -1.52651151408915        0.13500198728767       -0.00007972997491
N           -0.45693747967273       -0.72131743488820        0.00018343491537
C            0.88971167405931       -0.46559889919275        0.00041393944779
N            1.79502279696483       -1.35796970151630        0.00064525226035
C            1.42412493709535        0.93173566425777        0.00042173663173
O            0.79732123306142        1.95640736119882        0.00003726529816
H           -3.44550772639494        0.29041777748501       -0.00051760741739
H           -1.27478383682392        1.19581748337168       -0.00019888961056
H           -0.73412091793809       -1.70096894915453        0.00021238571451
H            1.46261535713871       -2.31957367070571        0.00063868594596
H            2.52644286677921        0.91454257293361        0.00075367129326

          :  Hamiltonian                  GFN2-xTB          :
         :: total energy             -21.747971547681 Eh    ::
         :: gradient norm              0.000065662724 Eh/a0 ::
         :: HOMO-LUMO gap              1.869696258635 eV    ::
         :: SCC energy               -22.015943224273 Eh    ::
         :: -> dispersion             -0.007351394344 Eh    ::
         :: -> Gsolv                  -0.011224144082 Eh    ::
         :: repulsion energy           0.267971676592 Eh    ::

    * Orbital Energies and Occupations

         #    Occupation            Energy/Eh            Energy/eV
      -------------------------------------------------------------
         1        2.0000           -0.7478407             -20.3498
       ...           ...                  ...                  ...
         7        2.0000           -0.6015860             -16.3700
         8        2.0000           -0.5753677             -15.6566
         9        2.0000           -0.5733591             -15.6019
        10        2.0000           -0.5656658             -15.3925
        11        2.0000           -0.5394755             -14.6799
        12        2.0000           -0.5266504             -14.3309
        13        2.0000           -0.5178534             -14.0915
        14        2.0000           -0.5073603             -13.8060
        15        2.0000           -0.4853112             -13.2060
        16        2.0000           -0.4330437             -11.7837
        17        2.0000           -0.4160271             -11.3207
        18        2.0000           -0.4096911             -11.1483
        19        2.0000           -0.3911420             -10.6435 (HOMO)
        20                         -0.3224319              -8.7738 (LUMO)
        21                         -0.2412259              -6.5641
        22                         -0.1761134              -4.7923
        23                         -0.0059273              -0.1613
        24                          0.0609289               1.6580
        25                          0.1114056               3.0315
        26                          0.1277477               3.4762
        27                          0.1660812               4.5193
        28                          0.1942403               5.2855
        29                          0.2392243               6.5096
        30                          0.3837717              10.4430
       ...                                ...                  ...
        33                          0.6683177              18.1858
      -------------------------------------------------------------
                  HL-Gap            0.0687101 Eh            1.8697 eV

     #   Z          covCN         q      C6AA      α(0)
     1   7 N        1.792    -0.353    29.999     8.113
     2   6 C        2.749     0.142    24.895     8.170
     3   7 N        2.708    -0.125    23.724     7.234
     4   6 C        2.802     0.153    24.681     8.139
     5   7 N        1.795    -0.344    29.755     8.080
     6   6 C        2.776     0.210    23.549     7.948
     7   8 O        0.856    -0.312    19.996     5.995
     8   1 H        0.860     0.150     1.399     1.853
     9   1 H        0.924     0.043     2.416     2.431
    10   1 H        0.860     0.210     1.058     1.611
    11   1 H        0.860     0.160     1.336     1.810
    12   1 H        0.923     0.066     2.126     2.280

Wiberg/Mayer (AO) data.
largest (>0.10) Wiberg bond orders for each atom

     #   Z sym  total        # sym  WBO       # sym  WBO       # sym  WBO
 ---------------------------------------------------------------------------
     1   7 N    3.004 --     2 C    1.825     8 H    0.951
     2   6 C    3.957 --     1 N    1.825     3 N    1.159     9 H    0.935
     3   7 N    3.541 --     4 C    1.161     2 C    1.159    10 H    0.914
                             5 N    0.162
     4   6 C    3.970 --     5 N    1.730     3 N    1.161     6 C    0.989
     5   7 N    3.015 --     4 C    1.730    11 H    0.944     3 N    0.162
     6   6 C    3.905 --     7 O    1.918     4 C    0.989    12 H    0.929
     7   8 O    2.107 --     6 C    1.918
     8   1 H    0.976 --     1 N    0.951
     9   1 H    0.998 --     2 C    0.935
    10   1 H    0.956 --     3 N    0.914
    11   1 H    0.974 --     5 N    0.944
    12   1 H    0.995 --     6 C    0.929
 ---------------------------------------------------------------------------

molecular dipole:
                 x           y           z       tot (Debye)
 q only:        0.060      -0.659       0.000
   full:       -0.153      -0.526       0.000       1.393

           -------------------------------------------------
          | TOTAL ENERGY              -21.747971547681 Eh   |
          | GRADIENT NORM               0.000065662724 Eh/α |
          | HOMO-LUMO GAP               1.869696258635 eV   |
           -------------------------------------------------

 * finished run on 2024/08/07 at 19:43:51.354
