   * xtb version 6.7.0 (08769fc) compiled by 'albert@albert-system' on 2024-03-04

   ID    Z sym.   atoms
    1    6 C      1-3, 5, 6
    2    8 O      4
    3    7 N      7
    4    1 H      8-14

          program call               : /home/mvotokps/xtb-dist/bin/xtb crest_best.xyz --gfn 2 --alpb toluene --opt vtight -c 0 --iterations 4000
      * Solvation model:               ALPB
        Solvent                        toluene
        Solvent mass                       7.8110E+01 g/mol
          :  Hamiltonian                  GFN2-xTB          :
 * total energy  :   -21.2000014 Eh     change       -0.4994405E-10 Eh
 * total energy  :   -21.2021900 Eh     change       -0.2188575E-02 Eh
 * total energy  :   -21.2025155 Eh     change       -0.3255188E-03 Eh
 * total energy  :   -21.2030012 Eh     change       -0.4856638E-03 Eh
 * total energy  :   -21.2032070 Eh     change       -0.2057785E-03 Eh
 * total energy  :   -21.2034066 Eh     change       -0.1995953E-03 Eh
 * total energy  :   -21.2036003 Eh     change       -0.1937816E-03 Eh
 * total energy  :   -21.2037896 Eh     change       -0.1892323E-03 Eh
 * total energy  :   -21.2039025 Eh     change       -0.1129745E-03 Eh
 * total energy  :   -21.2039704 Eh     change       -0.6780698E-04 Eh
 * total energy  :   -21.2040141 Eh     change       -0.4378056E-04 Eh
 * total energy  :   -21.2040126 Eh     change        0.1574966E-05 Eh
 * total energy  :   -21.2040418 Eh     change       -0.2928804E-04 Eh
 * total energy  :   -21.2040463 Eh     change       -0.4482423E-05 Eh
 * total energy  :   -21.2040518 Eh     change       -0.5443884E-05 Eh
 * total energy  :   -21.2040530 Eh     change       -0.1270931E-05 Eh
 * total energy  :   -21.2040534 Eh     change       -0.3410600E-06 Eh
 * total energy  :   -21.2040534 Eh     change       -0.5897166E-07 Eh
   *** GEOMETRY OPTIMIZATION CONVERGED AFTER 18 ITERATIONS ***

 final structure:
================
14
 xtb: 6.7.0 (08769fc)
C            0.52856148276570       -1.85556476019564        0.18999170131746
C            0.90899178282487       -0.58477222881557       -0.54442237110586
C            1.71546149379425        0.45984961487054        0.24190380179449
O            0.70224383428351        1.45400267553924        0.04717995433755
C           -0.15803724038512        0.53608941040956       -0.64112565448984
C           -1.40034435988333        0.29290630113906        0.05855935838904
N           -2.37622402546310        0.10044242962223        0.62328219596649
H            1.41275500387672       -2.47363932832226        0.33129067680462
H           -0.20409408744707       -2.41981759688360       -0.38385355867610
H            0.10040405668259       -1.62923504726875        1.16467732953264
H            1.34136475154082       -0.82010435706674       -1.51817199786232
H            2.66750875311414        0.76925843613616       -0.19580317402574
H            1.85107548816022        0.23021791908130        1.30273509065091
H           -0.39269528786420        0.88375674975447       -1.65700784553338

          :  Hamiltonian                  GFN2-xTB          :
         :: total energy             -21.204053446635 Eh    ::
         :: gradient norm              0.000115412354 Eh/a0 ::
         :: HOMO-LUMO gap              4.886898915189 eV    ::
         :: SCC energy               -21.497915094786 Eh    ::
         :: -> dispersion             -0.008777614923 Eh    ::
         :: -> Gsolv                  -0.010476117159 Eh    ::
         :: repulsion energy           0.293861648152 Eh    ::

    * Orbital Energies and Occupations

         #    Occupation            Energy/Eh            Energy/eV
      -------------------------------------------------------------
         1        2.0000           -0.7258551             -19.7515
       ...           ...                  ...                  ...
         7        2.0000           -0.5812772             -15.8174
         8        2.0000           -0.5725852             -15.5808
         9        2.0000           -0.5601701             -15.2430
        10        2.0000           -0.5279533             -14.3663
        11        2.0000           -0.5158479             -14.0369
        12        2.0000           -0.5093026             -13.8588
        13        2.0000           -0.4944543             -13.4548
        14        2.0000           -0.4911732             -13.3655
        15        2.0000           -0.4788526             -13.0302
        16        2.0000           -0.4598919             -12.5143
        17        2.0000           -0.4527308             -12.3194
        18        2.0000           -0.4469588             -12.1624
        19        2.0000           -0.4155865             -11.3087 (HOMO)
        20                         -0.2359962              -6.4218 (LUMO)
        21                         -0.2245434              -6.1101
        22                         -0.0245966              -0.6693
        23                         -0.0109617              -0.2983
        24                          0.0618496               1.6830
        25                          0.0655528               1.7838
        26                          0.0878569               2.3907
        27                          0.1147095               3.1214
        28                          0.1464457               3.9850
        29                          0.1689617               4.5977
        30                          0.1829908               4.9794
       ...                                ...                  ...
        35                          1.1205405              30.4915
      -------------------------------------------------------------
                  HL-Gap            0.1795902 Eh            4.8869 eV

     #   Z          covCN         q      C6AA      α(0)
     1   6 C        3.751    -0.112    22.707     6.796
     2   6 C        3.888    -0.016    20.813     6.486
     3   6 C        4.014     0.080    19.181     6.222
     4   8 O        1.735    -0.327    19.459     5.956
     5   6 C        4.067     0.122    18.526     6.114
     6   6 C        1.892     0.116    28.245     8.583
     7   7 N        0.911    -0.222    25.857     7.354
     8   1 H        0.925     0.058     2.227     2.334
     9   1 H        0.925     0.052     2.290     2.367
    10   1 H        0.925     0.052     2.300     2.372
    11   1 H        0.924     0.048     2.340     2.392
    12   1 H        0.924     0.044     2.392     2.418
    13   1 H        0.924     0.047     2.361     2.403
    14   1 H        0.923     0.058     2.217     2.329

Wiberg/Mayer (AO) data.
largest (>0.10) Wiberg bond orders for each atom

     #   Z sym  total        # sym  WBO       # sym  WBO       # sym  WBO
 ---------------------------------------------------------------------------
     1   6 C    3.992 --     2 C    1.020    10 H    0.984     9 H    0.982
                             8 H    0.981
     2   6 C    3.984 --     1 C    1.020     3 C    0.991    11 H    0.972
                             5 C    0.945
     3   6 C    3.943 --     2 C    0.991    12 H    0.975    13 H    0.973
                             4 O    0.971
     4   8 O    2.035 --     3 C    0.971     5 C    0.959
     5   6 C    3.954 --     6 C    1.030     4 O    0.959     2 C    0.945
                            14 H    0.939
     6   6 C    3.942 --     7 N    2.858     5 C    1.030
     7   7 N    3.011 --     6 C    2.858
     8   1 H    0.997 --     1 C    0.981
     9   1 H    0.997 --     1 C    0.982
    10   1 H    0.997 --     1 C    0.984
    11   1 H    0.998 --     2 C    0.972
    12   1 H    0.998 --     3 C    0.975
    13   1 H    0.998 --     3 C    0.973
    14   1 H    0.997 --     5 C    0.939
 ---------------------------------------------------------------------------

molecular dipole:
                 x           y           z       tot (Debye)
 q only:        0.949      -0.832      -0.524
   full:        1.341      -0.757      -0.808       4.419

           -------------------------------------------------
          | TOTAL ENERGY              -21.204053446635 Eh   |
          | GRADIENT NORM               0.000115412354 Eh/α |
          | HOMO-LUMO GAP               4.886898915189 eV   |
           -------------------------------------------------

 * finished run on 2024/08/07 at 20:25:13.219
