   * xtb version 6.7.1 (edcfbbe) compiled by 'albert@albert-system' on 2024-07-22

   ID    Z sym.   atoms
    1    7 N      1, 3, 5
    2    6 C      2, 4, 6
    3    8 O      7
    4    1 H      8-12

          program call               : xtb crest_best.xyz --gfn 2 --alpb toluene --opt vtight -c 0 --iterations 40
      * Solvation model:               ALPB
        Solvent                        toluene
        Solvent mass                       7.8110E+01 g/mol
          :  Hamiltonian                  GFN2-xTB          :
 * total energy  :   -21.7416844 Eh     change       -0.4935075E-10 Eh
 * total energy  :   -21.7485361 Eh     change       -0.6851762E-02 Eh
 * total energy  :   -21.7507162 Eh     change       -0.2180089E-02 Eh
 * total energy  :   -21.7509132 Eh     change       -0.1970154E-03 Eh
 * total energy  :   -21.7509860 Eh     change       -0.7271267E-04 Eh
 * total energy  :   -21.7509970 Eh     change       -0.1106678E-04 Eh
 * total energy  :   -21.7510027 Eh     change       -0.5705776E-05 Eh
 * total energy  :   -21.7510045 Eh     change       -0.1799186E-05 Eh
 * total energy  :   -21.7510048 Eh     change       -0.2892034E-06 Eh
 * total energy  :   -21.7510048 Eh     change       -0.1738288E-07 Eh
   *** GEOMETRY OPTIMIZATION CONVERGED AFTER 10 ITERATIONS ***

 final structure:
================
12
 xtb: 6.7.1 (edcfbbe)
N           -2.47874548221608       -0.11758938198766        0.00038305456265
C           -1.69718793473905        0.87476353340646       -0.00098895722588
N           -0.34026722465608        0.72512035590750       -0.00107756109409
C            0.35303445896229       -0.47117106492225        0.00035289244024
N           -0.09353163277103       -1.65181323628701        0.00179516359841
C            1.83516409198369       -0.28401759091859        0.00008880049571
O            2.37329166473774        0.79364526283971       -0.00103954262696
H           -3.46583895993074        0.11288256602891        0.00033375484050
H           -1.99808052244143        1.93157831694959       -0.00219053257681
H            0.24080535447992        1.55604431180786       -0.00208839310077
H           -1.11146640671281       -1.70866338554447        0.00194447923595
H            2.39071079350359       -1.23338037638006        0.00110251625104

          :  Hamiltonian                  GFN2-xTB          :
         :: total energy             -21.751004830376 Eh    ::
         :: gradient norm              0.000019821520 Eh/a0 ::
         :: HOMO-LUMO gap              1.765396273816 eV    ::
         :: SCC energy               -22.019701658489 Eh    ::
         :: -> dispersion             -0.007515576251 Eh    ::
         :: -> Gsolv                  -0.010450102786 Eh    ::
         :: repulsion energy           0.268696828113 Eh    ::

    * Orbital Energies and Occupations

         #    Occupation            Energy/Eh            Energy/eV
      -------------------------------------------------------------
         1        2.0000           -0.7449993             -20.2725
       ...           ...                  ...                  ...
         7        2.0000           -0.5968489             -16.2411
         8        2.0000           -0.5708422             -15.5334
         9        2.0000           -0.5670078             -15.4291
        10        2.0000           -0.5565526             -15.1446
        11        2.0000           -0.5380251             -14.6404
        12        2.0000           -0.5366421             -14.6028
        13        2.0000           -0.5123682             -13.9422
        14        2.0000           -0.4962438             -13.5035
        15        2.0000           -0.4808625             -13.0849
        16        2.0000           -0.4331805             -11.7874
        17        2.0000           -0.4156345             -11.3100
        18        2.0000           -0.4123488             -11.2206
        19        2.0000           -0.3827434             -10.4150 (HOMO)
        20                         -0.3178663              -8.6496 (LUMO)
        21                         -0.2399273              -6.5288
        22                         -0.1710043              -4.6533
        23                          0.0051522               0.1402
        24                          0.0600867               1.6350
        25                          0.0810374               2.2051
        26                          0.1542738               4.1980
        27                          0.1643999               4.4735
        28                          0.2163156               5.8862
        29                          0.2696425               7.3373
        30                          0.3437451               9.3538
       ...                                ...                  ...
        33                          0.6806912              18.5225
      -------------------------------------------------------------
                  HL-Gap            0.0648771 Eh            1.7654 eV

     #   Z          covCN         q      C6AA      α(0)
     1   7 N        1.782    -0.349    29.902     8.099
     2   6 C        2.752     0.152    24.689     8.136
     3   7 N        2.700    -0.133    23.879     7.258
     4   6 C        2.806     0.154    24.662     8.136
     5   7 N        1.783    -0.326    29.266     8.012
     6   6 C        2.773     0.202    23.708     7.975
     7   8 O        0.856    -0.323    20.195     6.025
     8   1 H        0.860     0.149     1.405     1.857
     9   1 H        0.923     0.012     2.858     2.644
    10   1 H        0.860     0.202     1.094     1.639
    11   1 H        0.860     0.195     1.133     1.667
    12   1 H        0.923     0.064     2.148     2.292

Wiberg/Mayer (AO) data.
largest (>0.10) Wiberg bond orders for each atom

     #   Z sym  total        # sym  WBO       # sym  WBO       # sym  WBO
 ---------------------------------------------------------------------------
     1   7 N    3.024 --     2 C    1.811     8 H    0.950     3 N    0.114
     2   6 C    3.964 --     1 N    1.811     3 N    1.181     9 H    0.938
     3   7 N    3.532 --     2 C    1.181     4 C    1.117    10 H    0.925
                             5 N    0.148     1 N    0.114
     4   6 C    3.970 --     5 N    1.777     3 N    1.117     6 C    0.991
     5   7 N    3.031 --     4 C    1.777    11 H    0.915     3 N    0.148
     6   6 C    3.901 --     7 O    1.908     4 C    0.991    12 H    0.933
     7   8 O    2.095 --     6 C    1.908
     8   1 H    0.977 --     1 N    0.950
     9   1 H    0.999 --     2 C    0.938
    10   1 H    0.959 --     3 N    0.925
    11   1 H    0.962 --     5 N    0.915
    12   1 H    0.995 --     6 C    0.933
 ---------------------------------------------------------------------------

molecular dipole:
                 x           y           z       tot (Debye)
 q only:       -0.402       0.326      -0.001
   full:       -0.705       1.017      -0.001       3.145

           -------------------------------------------------
          | TOTAL ENERGY              -21.751004830376 Eh   |
          | GRADIENT NORM               0.000019821520 Eh/α |
          | HOMO-LUMO GAP               1.765396273816 eV   |
           -------------------------------------------------

 * finished run on 2024/08/07 at 20:47:20.827
