   * xtb version 6.7.1 (edcfbbe) compiled by 'albert@albert-system' on 2024-07-22

   ID    Z sym.   atoms
    1    6 C      1, 3, 5, 6
    2    7 N      2, 4
    3    8 O      7
    4    1 H      8-15

          program call               : xtb crest_best.xyz --gfn 2 --alpb toluene --opt vtight -c 0 --iterations 40
      * Solvation model:               ALPB
        Solvent                        toluene
        Solvent mass                       7.8110E+01 g/mol
          :  Hamiltonian                  GFN2-xTB          :
 * total energy  :   -22.5239049 Eh     change       -0.3464962E-10 Eh
 * total energy  :   -22.5286745 Eh     change       -0.4769547E-02 Eh
 * total energy  :   -22.5299961 Eh     change       -0.1321645E-02 Eh
 * total energy  :   -22.5301429 Eh     change       -0.1467580E-03 Eh
 * total energy  :   -22.5302210 Eh     change       -0.7810770E-04 Eh
 * total energy  :   -22.5302784 Eh     change       -0.5740491E-04 Eh
 * total energy  :   -22.5303547 Eh     change       -0.7628014E-04 Eh
 * total energy  :   -22.5304474 Eh     change       -0.9276623E-04 Eh
 * total energy  :   -22.5305496 Eh     change       -0.1021829E-03 Eh
 * total energy  :   -22.5307032 Eh     change       -0.1535210E-03 Eh
 * total energy  :   -22.5323071 Eh     change       -0.5408960E-05 Eh
 * total energy  :   -22.5323109 Eh     change       -0.3800703E-05 Eh
 * total energy  :   -22.5323115 Eh     change       -0.5490400E-06 Eh
 * total energy  :   -22.5323119 Eh     change       -0.4316575E-06 Eh
 * total energy  :   -22.5323130 Eh     change       -0.1108755E-05 Eh
 * total energy  :   -22.5323137 Eh     change       -0.7118683E-06 Eh
 * total energy  :   -22.5323142 Eh     change       -0.4283834E-06 Eh
 * total energy  :   -22.5323143 Eh     change       -0.1909628E-06 Eh
 * total energy  :   -22.5323144 Eh     change       -0.9462648E-07 Eh
   *** GEOMETRY OPTIMIZATION CONVERGED AFTER 50 ITERATIONS ***

 final structure:
================
15
 xtb: 6.7.1 (edcfbbe)
C           -2.08152046790408        0.78069236533724        0.04206991458410
N           -1.40701452644232       -0.49599354651629        0.06554831672025
C           -0.09950708476926       -0.74463058050096       -0.18284625074807
N            0.44333251449485       -1.89839831778502       -0.22276381551340
C            0.82821081279203        0.41518627657334       -0.46263758059587
C            2.19118589232640        0.25159519026908        0.13234626837527
O            0.49245515253825        1.35876361725476       -1.14106817448653
H           -1.42354430953571        1.56256802355141        0.41652278867032
H           -2.96154987745123        0.72388754138466        0.68155779090791
H           -2.39207645034780        1.05311181821926       -0.97130883125653
H           -2.00777553113597       -1.30818771066132        0.11683371362760
H           -0.20619367627919       -2.67211006090998       -0.09071170264243
H            2.11537306097135        0.33262457619506        1.21576129357045
H            2.86982416785365        1.01033717993824       -0.24776734196365
H            2.54554171388884       -0.75081394304958       -0.09521268064932

          :  Hamiltonian                  GFN2-xTB          :
         :: total energy             -22.532314439512 Eh    ::
         :: gradient norm              0.000094900512 Eh/a0 ::
         :: HOMO-LUMO gap              2.833485476513 eV    ::
         :: SCC energy               -22.814337943110 Eh    ::
         :: -> dispersion             -0.009159305380 Eh    ::
         :: -> Gsolv                  -0.011793214601 Eh    ::
         :: repulsion energy           0.282023503598 Eh    ::

    * Orbital Energies and Occupations

         #    Occupation            Energy/Eh            Energy/eV
      -------------------------------------------------------------
         1        2.0000           -0.7197730             -19.5860
       ...           ...                  ...                  ...
         8        2.0000           -0.5554504             -15.1146
         9        2.0000           -0.5431755             -14.7806
        10        2.0000           -0.5330348             -14.5046
        11        2.0000           -0.5299855             -14.4216
        12        2.0000           -0.5187577             -14.1161
        13        2.0000           -0.4951270             -13.4731
        14        2.0000           -0.4815763             -13.1044
        15        2.0000           -0.4740085             -12.8984
        16        2.0000           -0.4715818             -12.8324
        17        2.0000           -0.4657373             -12.6734
        18        2.0000           -0.4077814             -11.0963
        19        2.0000           -0.3844812             -10.4623
        20        2.0000           -0.3800877             -10.3427 (HOMO)
        21                         -0.2759590              -7.5092 (LUMO)
        22                         -0.1804472              -4.9102
        23                         -0.0003222              -0.0088
        24                          0.0608339               1.6554
        25                          0.1229505               3.3457
        26                          0.1383237               3.7640
        27                          0.1593311               4.3356
        28                          0.1720607               4.6820
        29                          0.1893334               5.1520
        30                          0.2023384               5.5059
        31                          0.2201409               5.9903
       ...                                ...                  ...
        36                          0.6604070              17.9706
      -------------------------------------------------------------
                  HL-Gap            0.1041287 Eh            2.8335 eV

     #   Z          covCN         q      C6AA      α(0)
     1   6 C        3.684    -0.039    21.471     6.634
     2   7 N        2.686    -0.165    24.579     7.363
     3   6 C        2.804     0.144    24.853     8.167
     4   7 N        1.788    -0.396    31.205     8.274
     5   6 C        2.822     0.241    22.982     7.855
     6   6 C        3.755    -0.144    23.343     6.889
     7   8 O        0.857    -0.369    21.065     6.154
     8   1 H        0.925     0.062     2.181     2.309
     9   1 H        0.925     0.057     2.231     2.336
    10   1 H        0.924     0.055     2.256     2.349
    11   1 H        0.860     0.172     1.260     1.758
    12   1 H        0.860     0.127     1.572     1.964
    13   1 H        0.925     0.082     1.958     2.188
    14   1 H        0.925     0.072     2.066     2.248
    15   1 H        0.925     0.101     1.772     2.081

Wiberg/Mayer (AO) data.
largest (>0.10) Wiberg bond orders for each atom

     #   Z sym  total        # sym  WBO       # sym  WBO       # sym  WBO
 ---------------------------------------------------------------------------
     1   6 C    3.969 --     2 N    1.007     9 H    0.982     8 H    0.979
                            10 H    0.973
     2   7 N    3.429 --     3 C    1.232     1 C    1.007    11 H    0.937
                             4 N    0.219
     3   6 C    3.970 --     4 N    1.693     2 N    1.232     5 C    0.953
     4   7 N    2.972 --     3 C    1.693    12 H    0.950     2 N    0.219
     5   6 C    3.912 --     7 O    1.843     6 C    1.023     3 C    0.953
     6   6 C    3.991 --     5 C    1.023    14 H    0.981    15 H    0.949
                            13 H    0.947
     7   8 O    2.065 --     5 C    1.843
     8   1 H    0.996 --     1 C    0.979
     9   1 H    0.997 --     1 C    0.982
    10   1 H    0.997 --     1 C    0.973
    11   1 H    0.970 --     2 N    0.937
    12   1 H    0.984 --     4 N    0.950
    13   1 H    0.993 --     6 C    0.947
    14   1 H    0.994 --     6 C    0.981
    15   1 H    0.990 --     6 C    0.949
 ---------------------------------------------------------------------------

molecular dipole:
                 x           y           z       tot (Debye)
 q only:       -0.565      -0.161       0.816
   full:       -0.994      -0.288       0.914       3.510

           -------------------------------------------------
          | TOTAL ENERGY              -22.532314439512 Eh   |
          | GRADIENT NORM               0.000094900512 Eh/α |
          | HOMO-LUMO GAP               2.833485476513 eV   |
           -------------------------------------------------

 * finished run on 2024/08/07 at 21:10:46.805
