   * xtb version 6.7.1 (edcfbbe) compiled by 'albert@albert-system' on 2024-07-22

   ID    Z sym.   atoms
    1    8 O      1
    2    6 C      2, 3, 5, 6
    3    7 N      4, 7
    4    1 H      8-13

          program call               : xtb crest_best.xyz --gfn 2 --alpb toluene --opt vtight -c 0 --iterations 40
      * Solvation model:               ALPB
        Solvent                        toluene
        Solvent mass                       7.8110E+01 g/mol
          :  Hamiltonian                  GFN2-xTB          :
 * total energy  :   -21.4540631 Eh     change       -0.6047784E-10 Eh
 * total energy  :   -21.4565677 Eh     change       -0.2504648E-02 Eh
 * total energy  :   -21.4572378 Eh     change       -0.6700650E-03 Eh
 * total energy  :   -21.4573880 Eh     change       -0.1502282E-03 Eh
 * total energy  :   -21.4575689 Eh     change       -0.1808708E-03 Eh
 * total energy  :   -21.4576459 Eh     change       -0.7697585E-04 Eh
 * total energy  :   -21.4576975 Eh     change       -0.5163877E-04 Eh
 * total energy  :   -21.4577111 Eh     change       -0.1359335E-04 Eh
 * total energy  :   -21.4577118 Eh     change       -0.7046526E-06 Eh
 * total energy  :   -21.4577206 Eh     change       -0.8802736E-05 Eh
 * total energy  :   -21.4577250 Eh     change       -0.4399693E-05 Eh
 * total energy  :   -21.4577279 Eh     change       -0.2885680E-05 Eh
 * total energy  :   -21.4577319 Eh     change       -0.3955295E-05 Eh
 * total energy  :   -21.4577321 Eh     change       -0.2766763E-06 Eh
 * total energy  :   -21.4577323 Eh     change       -0.1288300E-06 Eh
 * total energy  :   -21.4577323 Eh     change       -0.1243518E-07 Eh
   *** GEOMETRY OPTIMIZATION CONVERGED AFTER 16 ITERATIONS ***

 final structure:
================
13
 xtb: 6.7.1 (edcfbbe)
O            0.14938295143631       -1.55467506996616       -0.31170544526440
C            0.40291841892402       -0.44311499381526        0.50494847280427
C            1.63727897040074        0.23592784259817        0.11529095224547
N            2.58946139843237        0.77559163749719       -0.21560743423837
C           -0.73560860731386        0.58027811934780        0.44635528220921
C           -2.13720187790567        0.11206576863741        0.37791394695290
N           -1.45069587219513        0.58321447911168       -0.80707905396963
H           -0.28855187671163       -1.22338260018321       -1.11258611434513
H            0.53089044741350       -0.81561766402788        1.53210113740298
H           -0.51227818896916        1.51598877589573        0.95188832113743
H           -2.91072298863787        0.72035287313891        0.83059793195228
H           -2.32916978510745       -0.95282918207039        0.39238933182786
H           -1.73590798296616        1.49533828553602       -1.14480480381486

          :  Hamiltonian                  GFN2-xTB          :
         :: total energy             -21.457732282556 Eh    ::
         :: gradient norm              0.000042314828 Eh/a0 ::
         :: HOMO-LUMO gap              4.728133807058 eV    ::
         :: SCC energy               -21.746283908115 Eh    ::
         :: -> dispersion             -0.007897264810 Eh    ::
         :: -> Gsolv                  -0.010708589445 Eh    ::
         :: repulsion energy           0.288551625560 Eh    ::

    * Orbital Energies and Occupations

         #    Occupation            Energy/Eh            Energy/eV
      -------------------------------------------------------------
         1        2.0000           -0.7128111             -19.3966
       ...           ...                  ...                  ...
         7        2.0000           -0.5870625             -15.9748
         8        2.0000           -0.5812082             -15.8155
         9        2.0000           -0.5554215             -15.1138
        10        2.0000           -0.5459795             -14.8569
        11        2.0000           -0.5126829             -13.9508
        12        2.0000           -0.4992501             -13.5853
        13        2.0000           -0.4935449             -13.4300
        14        2.0000           -0.4855016             -13.2112
        15        2.0000           -0.4683092             -12.7433
        16        2.0000           -0.4670761             -12.7098
        17        2.0000           -0.4589882             -12.4897
        18        2.0000           -0.4269580             -11.6181
        19        2.0000           -0.4033942             -10.9769 (HOMO)
        20                         -0.2296385              -6.2488 (LUMO)
        21                         -0.2226935              -6.0598
        22                         -0.0933191              -2.5393
        23                          0.0196739               0.5354
        24                          0.0573976               1.5619
        25                          0.0774074               2.1064
        26                          0.0986677               2.6849
        27                          0.1099164               2.9910
        28                          0.1527908               4.1576
        29                          0.1566445               4.2625
        30                          0.2009741               5.4688
       ...                                ...                  ...
        34                          1.1099260              30.2026
      -------------------------------------------------------------
                  HL-Gap            0.1737557 Eh            4.7281 eV

     #   Z          covCN         q      C6AA      α(0)
     1   8 O        1.656    -0.431    21.460     6.254
     2   6 C        3.729     0.120    18.709     6.175
     3   6 C        1.903     0.105    28.498     8.622
     4   7 N        0.911    -0.224    25.886     7.359
     5   6 C        3.798     0.042    19.880     6.349
     6   6 C        3.737     0.005    20.577     6.473
     7   7 N        2.677    -0.277    27.153     7.739
     8   1 H        0.804     0.321     0.662     1.278
     9   1 H        0.923     0.072     2.066     2.248
    10   1 H        0.925     0.025     2.665     2.553
    11   1 H        0.925     0.034     2.527     2.486
    12   1 H        0.925     0.062     2.175     2.306
    13   1 H        0.860     0.146     1.428     1.872

Wiberg/Mayer (AO) data.
largest (>0.10) Wiberg bond orders for each atom

     #   Z sym  total        # sym  WBO       # sym  WBO       # sym  WBO
 ---------------------------------------------------------------------------
     1   8 O    1.976 --     2 C    1.002     8 H    0.869
     2   6 C    3.967 --     3 C    1.002     1 O    1.002     5 C    0.950
                             9 H    0.932
     3   6 C    3.937 --     4 N    2.869     2 C    1.002
     4   7 N    3.012 --     3 C    2.869
     5   6 C    3.937 --     7 N    0.981     6 C    0.977    10 H    0.967
                             2 C    0.950
     6   6 C    3.931 --     5 C    0.977     7 N    0.976    11 H    0.976
                            12 H    0.973
     7   7 N    2.996 --     5 C    0.981     6 C    0.976    13 H    0.959
     8   1 H    0.897 --     1 O    0.869
     9   1 H    0.995 --     2 C    0.932
    10   1 H    0.999 --     5 C    0.967
    11   1 H    0.998 --     6 C    0.976
    12   1 H    0.996 --     6 C    0.973
    13   1 H    0.979 --     7 N    0.959
 ---------------------------------------------------------------------------

molecular dipole:
                 x           y           z       tot (Debye)
 q only:       -1.184       0.192       0.305
   full:       -1.720       0.497       0.537       4.750

           -------------------------------------------------
          | TOTAL ENERGY              -21.457732282556 Eh   |
          | GRADIENT NORM               0.000042314828 Eh/α |
          | HOMO-LUMO GAP               4.728133807058 eV   |
           -------------------------------------------------

 * finished run on 2024/08/07 at 21:45:09.625
