   * xtb version 6.7.1 (edcfbbe) compiled by 'albert@albert-system' on 2024-07-22

   ID    Z sym.   atoms
    1    6 C      1-3, 5, 6
    2    7 N      4
    3    8 O      7
    4    1 H      8-16

          program call               : xtb crest_best.xyz --gfn 2 --alpb toluene --opt vtight -c 0 --iterations 40
      * Solvation model:               ALPB
        Solvent                        toluene
        Solvent mass                       7.8110E+01 g/mol
          :  Hamiltonian                  GFN2-xTB          :
 * total energy  :   -22.2281338 Eh     change       -0.1085709E-10 Eh
 * total energy  :   -22.2341245 Eh     change       -0.5990728E-02 Eh
 * total energy  :   -22.2356231 Eh     change       -0.1498595E-02 Eh
 * total energy  :   -22.2359876 Eh     change       -0.3644196E-03 Eh
 * total energy  :   -22.2361404 Eh     change       -0.1528302E-03 Eh
 * total energy  :   -22.2361840 Eh     change       -0.4357580E-04 Eh
 * total energy  :   -22.2362381 Eh     change       -0.5413202E-04 Eh
 * total energy  :   -22.2362931 Eh     change       -0.5503690E-04 Eh
 * total energy  :   -22.2363398 Eh     change       -0.4667037E-04 Eh
 * total energy  :   -22.2364197 Eh     change       -0.7987461E-04 Eh
 * total energy  :   -22.2378975 Eh     change       -0.8284737E-05 Eh
 * total energy  :   -22.2379045 Eh     change       -0.6932010E-05 Eh
 * total energy  :   -22.2379117 Eh     change       -0.7185965E-05 Eh
 * total energy  :   -22.2379136 Eh     change       -0.1941071E-05 Eh
 * total energy  :   -22.2379147 Eh     change       -0.1045790E-05 Eh
 * total energy  :   -22.2379152 Eh     change       -0.5831694E-06 Eh
 * total energy  :   -22.2379157 Eh     change       -0.4954610E-06 Eh
 * total energy  :   -22.2379159 Eh     change       -0.2087217E-06 Eh
 * total energy  :   -22.2379160 Eh     change       -0.4202943E-07 Eh
   *** GEOMETRY OPTIMIZATION CONVERGED AFTER 34 ITERATIONS ***

 final structure:
================
16
 xtb: 6.7.1 (edcfbbe)
C           -1.24109866367323       -1.48800105662294        0.41550728815576
C           -1.55699864218455       -0.06523387908376        0.02337549365917
C           -0.94429458558397        0.55765176563343       -1.17479567701310
N           -0.60725958187759        1.01414280927171        0.15285780746105
C            0.68944609146694        0.88671039692650        0.76627111287642
C            1.78693863383026        0.02920908077737        0.19145167980206
O            1.73750063639558       -0.74892443159556       -0.72432270677301
H           -1.24246756447069       -1.59366881320053        1.50038499714066
H           -0.27286160935172       -1.79819217911541        0.03140992969249
H           -2.00023151162740       -2.15261221968286        0.00748652008645
H           -2.56521339929072        0.24548146267216        0.28797603701446
H           -1.51033191822319        1.27035893127449       -1.76202188316299
H           -0.22589099901557       -0.01987179001263       -1.74106817357086
H            0.54667850618765        0.55574415395845        1.80367389257347
H            1.11161106438015        1.90097269757974        0.82348164104604
H            2.74622839393817        0.20520451731987        0.72330964511203

          :  Hamiltonian                  GFN2-xTB          :
         :: total energy             -22.237915983247 Eh    ::
         :: gradient norm              0.000038588556 Eh/a0 ::
         :: HOMO-LUMO gap              2.409800551925 eV    ::
         :: SCC energy               -22.511371666082 Eh    ::
         :: -> dispersion             -0.010279967978 Eh    ::
         :: -> Gsolv                  -0.010439577160 Eh    ::
         :: repulsion energy           0.273455682836 Eh    ::

    * Orbital Energies and Occupations

         #    Occupation            Energy/Eh            Energy/eV
      -------------------------------------------------------------
         1        2.0000           -0.7311074             -19.8944
       ...           ...                  ...                  ...
         8        2.0000           -0.5663225             -15.4104
         9        2.0000           -0.5568806             -15.1535
        10        2.0000           -0.5330079             -14.5039
        11        2.0000           -0.5254988             -14.2996
        12        2.0000           -0.5108963             -13.9022
        13        2.0000           -0.4993278             -13.5874
        14        2.0000           -0.4837637             -13.1639
        15        2.0000           -0.4692396             -12.7687
        16        2.0000           -0.4576840             -12.4542
        17        2.0000           -0.4380693             -11.9205
        18        2.0000           -0.4338379             -11.8053
        19        2.0000           -0.4158439             -11.3157
        20        2.0000           -0.3608201              -9.8184 (HOMO)
        21                         -0.2722616              -7.4086 (LUMO)
        22                         -0.0706283              -1.9219
        23                          0.0139482               0.3795
        24                          0.0636615               1.7323
        25                          0.0937081               2.5499
        26                          0.1349178               3.6713
        27                          0.1431149               3.8944
        28                          0.1585560               4.3145
        29                          0.1826822               4.9710
        30                          0.1881030               5.1185
        31                          0.2067042               5.6247
       ...                                ...                  ...
        37                          0.6066956              16.5090
      -------------------------------------------------------------
                  HL-Gap            0.0885585 Eh            2.4098 eV

     #   Z          covCN         q      C6AA      α(0)
     1   6 C        3.751    -0.110    22.671     6.790
     2   6 C        3.788     0.042    19.877     6.350
     3   6 C        3.738    -0.007    20.774     6.504
     4   7 N        2.724    -0.199    25.320     7.473
     5   6 C        3.734    -0.011    20.854     6.517
     6   6 C        2.754     0.211    23.525     7.942
     7   8 O        0.856    -0.348    20.674     6.096
     8   1 H        0.925     0.038     2.480     2.463
     9   1 H        0.925     0.051     2.308     2.376
    10   1 H        0.925     0.042     2.424     2.435
    11   1 H        0.925     0.035     2.514     2.479
    12   1 H        0.925     0.037     2.495     2.470
    13   1 H        0.925     0.042     2.420     2.433
    14   1 H        0.923     0.081     1.967     2.193
    15   1 H        0.923     0.078     2.002     2.213
    16   1 H        0.921     0.018     2.767     2.602

Wiberg/Mayer (AO) data.
largest (>0.10) Wiberg bond orders for each atom

     #   Z sym  total        # sym  WBO       # sym  WBO       # sym  WBO
 ---------------------------------------------------------------------------
     1   6 C    3.996 --     2 C    1.015    10 H    0.982     9 H    0.981
                             8 H    0.981
     2   6 C    3.937 --     1 C    1.015     3 C    0.974    11 H    0.966
                             4 N    0.955
     3   6 C    3.933 --    12 H    0.975     2 C    0.974    13 H    0.970
                             4 N    0.963
     4   7 N    3.056 --     5 C    1.024     3 C    0.963     2 C    0.955
     5   6 C    3.991 --     4 N    1.024     6 C    1.005    15 H    0.933
                            14 H    0.927
     6   6 C    3.910 --     7 O    1.893     5 C    1.005    16 H    0.930
     7   8 O    2.085 --     6 C    1.893
     8   1 H    0.999 --     1 C    0.981
     9   1 H    0.997 --     1 C    0.981
    10   1 H    0.998 --     1 C    0.982
    11   1 H    0.999 --     2 C    0.966
    12   1 H    0.999 --     3 C    0.975
    13   1 H    0.998 --     3 C    0.970
    14   1 H    0.993 --     5 C    0.927
    15   1 H    0.994 --     5 C    0.933
    16   1 H    0.999 --     6 C    0.930
 ---------------------------------------------------------------------------

molecular dipole:
                 x           y           z       tot (Debye)
 q only:       -0.296       0.421       0.701
   full:       -0.046       0.289       0.800       2.165

           -------------------------------------------------
          | TOTAL ENERGY              -22.237915983247 Eh   |
          | GRADIENT NORM               0.000038588556 Eh/α |
          | HOMO-LUMO GAP               2.409800551925 eV   |
           -------------------------------------------------

 * finished run on 2024/08/07 at 21:22:39.839
