   * xtb version 6.5.1 (fef0646) compiled by 'conda@b96dff2e9fd6' on 2023-01-04
          program call               : xtb crest_best.xyz --opt normal -c 0 --iterations 4000

   ID    Z sym.   atoms
    1    6 C      1-6, 8-20, 22
    2    7 N      7, 21
    3    1 H      23-34

          :  Hamiltonian                  GFN2-xTB          :
 * total energy  :   -54.5624789 Eh     change       -0.1137558E-07 Eh
 * total energy  :   -54.5689086 Eh     change       -0.6429708E-02 Eh
 * total energy  :   -54.5707774 Eh     change       -0.1868788E-02 Eh
 * total energy  :   -54.5709510 Eh     change       -0.1735790E-03 Eh
 * total energy  :   -54.5709994 Eh     change       -0.4836909E-04 Eh
 * total energy  :   -54.5710049 Eh     change       -0.5569926E-05 Eh
 * total energy  :   -54.5710076 Eh     change       -0.2623330E-05 Eh
   *** GEOMETRY OPTIMIZATION CONVERGED AFTER 7 ITERATIONS ***

 final structure:
================
34
 xtb: 6.5.1 (fef0646)
C           -6.59755958179335        0.09290477018851       -0.01688395017826
C           -5.60650207540292        1.02768916798392       -0.01414697736890
C           -4.25305256257490        0.60633434838173       -0.00492383746954
C           -3.17905471584223        1.49239582786605       -0.00245438982306
C           -1.87400295179278        1.02262156452050        0.00475644302894
C           -0.71928243496912        1.85266361431174        0.00619909061071
N            0.49300240373161        1.41847541949028        0.00938592038540
C            0.77383357066339        0.07716207761661        0.01232587335071
C            2.15646149311391       -0.32669557364708        0.01122049523190
C            3.18805985168263        0.53210356957447        0.00506512489118
C            4.56837255408374        0.11023616891102        0.00015322422441
C            5.61772568517824        1.04730178142216       -0.00657316912774
C            6.93563083692752        0.63516211900460       -0.01297573684167
C            7.26285143678843       -0.71009168227569       -0.01291477984220
C            6.24104567041349       -1.66319940278042       -0.00594108476348
C            4.96298021389424       -1.20902515873350        0.00022678181332
C           -0.27616175459889       -0.78870156562514        0.01432354392975
C           -1.61356113886292       -0.39800082817008        0.01022259385058
C           -2.69404881690518       -1.27971839953644        0.00916842960065
C           -4.00230903585786       -0.80651118698587        0.00128608143729
N           -5.01585058990561       -1.70888576343968       -0.00110626287281
C           -6.23705718513032       -1.27603256418295       -0.00982848593922
H           -7.63981793245261        0.37214685897876       -0.02426897314604
H           -5.82646395299375        2.08683701730159       -0.01917414712430
H           -3.36473558705223        2.55843205687276       -0.00697739394595
H           -0.84058525271778        2.93011569897467        0.00405924434789
H            2.34143547531637       -1.39252095840558        0.01387398140682
H            2.99272327200929        1.59540541936770        0.00258017698204
H            5.37179331108667        2.10007413400719       -0.00685819483552
H            7.72424324279437        1.37442348351476       -0.01827999294212
H            8.29452904529432       -1.03012105149119       -0.01821787346960
H            6.47715210466267       -2.71681287833259       -0.00572073769241
H           -2.52547458707417       -2.34474440345067        0.01339913454440
H           -7.00886587851427       -2.03600011173213       -0.01169742145313

          :  Hamiltonian                  GFN2-xTB          :
         :: total energy             -54.571007569110 Eh    ::
         :: gradient norm              0.000787886146 Eh/a0 ::
         :: HOMO-LUMO gap              0.014573487891 eV    ::
         :: SCC energy               -55.585467247869 Eh    ::
         :: -> dispersion             -0.038297785830 Eh    ::
         :: repulsion energy           1.015044430420 Eh    ::

    * Orbital Energies and Occupations

         #    Occupation            Energy/Eh            Energy/eV
      -------------------------------------------------------------
         1        2.0000           -0.6693403             -18.2137
       ...           ...                  ...                  ...
        39        2.0000           -0.4496660             -12.2360
        40        2.0000           -0.4445099             -12.0957
        41        2.0000           -0.4442069             -12.0875
        42        2.0000           -0.4406661             -11.9911
        43        2.0000           -0.4260594             -11.5937
        44        2.0000           -0.4253140             -11.5734
        45        2.0000           -0.4191560             -11.4058
        46        2.0000           -0.4063797             -11.0582
        47        2.0000           -0.3950671             -10.7503
        48        2.0000           -0.3879630             -10.5570
        49        2.0000           -0.3706834             -10.0868
        50        2.0000           -0.3664740              -9.9723
        51        1.1400           -0.3231184              -8.7925 (HOMO)
        52        0.8600           -0.3225829              -8.7779 (LUMO)
        53                         -0.3007509              -8.1838
        54                         -0.2734302              -7.4404
        55                         -0.2434372              -6.6243
        56                         -0.2331983              -6.3456
        57                         -0.2188468              -5.9551
        58                         -0.1968618              -5.3569
        59                         -0.1891554              -5.1472
        60                         -0.1566257              -4.2620
        61                         -0.1057725              -2.8782
        62                         -0.0726498              -1.9769
       ...                                ...                  ...
       100                          0.7148665              19.4525
      -------------------------------------------------------------
                  HL-Gap            0.0005356 Eh            0.0146 eV

     #   Z          covCN         q      C6AA      α(0)
     1   6 C        2.909    -0.041    29.014     8.832
     2   6 C        2.921    -0.016    28.401     8.739
     3   6 C        2.982     0.003    27.945     8.671
     4   6 C        2.914    -0.038    28.938     8.821
     5   6 C        2.982    -0.001    28.045     8.687
     6   6 C        2.877     0.057    26.719     8.474
     7   7 N        1.847    -0.198    26.121     7.575
     8   6 C        2.932     0.095    25.887     8.344
     9   6 C        2.905    -0.035    28.873     8.811
    10   6 C        2.903    -0.028    28.703     8.785
    11   6 C        2.970     0.030    27.333     8.576
    12   6 C        2.937    -0.032    28.798     8.801
    13   6 C        2.915    -0.035    28.866     8.810
    14   6 C        2.931    -0.028    28.691     8.784
    15   6 C        2.913    -0.020    28.502     8.754
    16   6 C        2.027    -0.061    32.646     9.228
    17   6 C        2.002    -0.103    33.886     9.401
    18   6 C        2.983     0.033    27.247     8.562
    19   6 C        2.921    -0.039    28.961     8.825
    20   6 C        2.966     0.089    26.008     8.365
    21   7 N        1.841    -0.228    26.833     7.677
    22   6 C        2.900     0.070    26.430     8.429
    23   1 H        0.926     0.035     2.513     2.479
    24   1 H        0.925     0.034     2.524     2.485
    25   1 H        0.925     0.037     2.491     2.468
    26   1 H        0.925     0.044     2.397     2.421
    27   1 H        0.925     0.053     2.286     2.364
    28   1 H        0.926     0.053     2.277     2.360
    29   1 H        0.926     0.042     2.425     2.435
    30   1 H        0.926     0.037     2.490     2.468
    31   1 H        0.926     0.038     2.481     2.463
    32   1 H        0.926     0.046     2.374     2.410
    33   1 H        0.926     0.065     2.142     2.289
    34   1 H        0.925     0.039     2.458     2.452

Wiberg/Mayer (AO) data.
largest (>0.10) Wiberg bond orders for each atom

     #   Z sym  total        # sym  WBO       # sym  WBO       # sym  WBO
 ---------------------------------------------------------------------------
     1   6 C    3.973 --     2 C    1.596    22 C    1.260    23 H    0.970
     2   6 C    3.984 --     1 C    1.596     3 C    1.247    24 H    0.967
                            21 N    0.107
     3   6 C    3.980 --     4 C    1.366     2 C    1.247    20 C    1.184
     4   6 C    3.986 --     5 C    1.390     3 C    1.366    25 H    0.961
                            19 C    0.130
     5   6 C    3.923 --     4 C    1.390     6 C    1.209    18 C    1.137
     6   6 C    3.970 --     7 N    1.626     5 C    1.209    26 H    0.948
                            17 C    0.106
     7   7 N    3.037 --     6 C    1.626     8 C    1.168
     8   6 C    3.932 --    17 C    1.478     7 N    1.168     9 C    1.124
     9   6 C    3.981 --    10 C    1.733     8 C    1.124    27 H    0.960
    10   6 C    3.953 --     9 C    1.733    11 C    1.119    28 H    0.961
    11   6 C    3.953 --    16 C    1.379    12 C    1.306    10 C    1.119
                            14 C    0.101
    12   6 C    3.918 --    13 C    1.464    11 C    1.306    29 H    0.959
                            15 C    0.106
    13   6 C    3.990 --    12 C    1.464    14 C    1.439    30 H    0.963
    14   6 C    3.917 --    13 C    1.439    15 C    1.358    31 H    0.964
                            11 C    0.101
    15   6 C    3.959 --    16 C    1.510    14 C    1.358    32 H    0.956
                            12 C    0.106
    16   6 C    3.120 --    15 C    1.510    11 C    1.379
    17   6 C    3.106 --     8 C    1.478    18 C    1.298     6 C    0.106
    18   6 C    3.962 --    19 C    1.353    17 C    1.298     5 C    1.137
    19   6 C    3.957 --    20 C    1.370    18 C    1.353    33 H    0.964
                             4 C    0.130
    20   6 C    3.980 --    19 C    1.370    21 N    1.243     3 C    1.184
    21   7 N    3.060 --    22 C    1.598    20 C    1.243     2 C    0.107
    22   6 C    3.967 --    21 N    1.598     1 C    1.260    34 H    0.962
    23   1 H    0.998 --     1 C    0.970
    24   1 H    0.998 --     2 C    0.967
    25   1 H    0.993 --     4 C    0.961
    26   1 H    0.982 --     6 C    0.948
    27   1 H    0.996 --     9 C    0.960
    28   1 H    0.996 --    10 C    0.961
    29   1 H    0.987 --    12 C    0.959
    30   1 H    0.990 --    13 C    0.963
    31   1 H    0.989 --    14 C    0.964
    32   1 H    0.982 --    15 C    0.956
    33   1 H    0.992 --    19 C    0.964
    34   1 H    0.998 --    22 C    0.962
 ---------------------------------------------------------------------------

molecular dipole:
                 x           y           z       tot (Debye)
 q only:        0.156       0.446      -0.005
   full:       -0.270       1.041      -0.011       2.733

           -------------------------------------------------
          | TOTAL ENERGY              -54.571007569110 Eh   |
          | GRADIENT NORM               0.000787886146 Eh/α |
          | HOMO-LUMO GAP               0.014573487891 eV   |
           -------------------------------------------------

 * finished run on 2024/06/14 at 02:58:48.371
