   * xtb version 6.7.1 (edcfbbe) compiled by 'albert@albert-system' on 2024-07-22

   ID    Z sym.   atoms
    1    7 N      1
    2    6 C      2-4, 6
    3    8 O      5, 7
    4    1 H      8-12

          program call               : xtb crest_best.xyz --gfn 2 --alpb toluene --opt vtight -c 0 --iterations 40
      * Solvation model:               ALPB
        Solvent                        toluene
        Solvent mass                       7.8110E+01 g/mol
          :  Hamiltonian                  GFN2-xTB          :
 * total energy  :   -22.0982580 Eh     change       -0.2913225E-10 Eh
 * total energy  :   -22.1061588 Eh     change       -0.7900852E-02 Eh
 * total energy  :   -22.1087705 Eh     change       -0.2611643E-02 Eh
 * total energy  :   -22.1089537 Eh     change       -0.1831872E-03 Eh
 * total energy  :   -22.1092102 Eh     change       -0.2565852E-03 Eh
 * total energy  :   -22.1092646 Eh     change       -0.5431412E-04 Eh
 * total energy  :   -22.1093053 Eh     change       -0.4078915E-04 Eh
 * total energy  :   -22.1093386 Eh     change       -0.3328225E-04 Eh
 * total energy  :   -22.1093832 Eh     change       -0.4460557E-04 Eh
 * total energy  :   -22.1094249 Eh     change       -0.4163952E-04 Eh
 * total energy  :   -22.1100796 Eh     change       -0.1524631E-04 Eh
 * total energy  :   -22.1100929 Eh     change       -0.1324752E-04 Eh
 * total energy  :   -22.1101084 Eh     change       -0.1554111E-04 Eh
 * total energy  :   -22.1101086 Eh     change       -0.2289022E-06 Eh
 * total energy  :   -22.1101119 Eh     change       -0.3282498E-05 Eh
 * total energy  :   -22.1101132 Eh     change       -0.1287556E-05 Eh
 * total energy  :   -22.1101138 Eh     change       -0.5460386E-06 Eh
 * total energy  :   -22.1101142 Eh     change       -0.4077765E-06 Eh
 * total energy  :   -22.1101142 Eh     change       -0.9050174E-07 Eh
   *** GEOMETRY OPTIMIZATION CONVERGED AFTER 35 ITERATIONS ***

 final structure:
================
12
 xtb: 6.7.1 (edcfbbe)
N           -2.52416265579176       -0.08121238318457       -0.47248339024229
C           -1.36266840436453       -0.04564545427775       -0.02598882284432
C           -0.29640660700149       -0.98775857233026        0.51451030663384
C            0.51107023665079        0.32509226271631        0.64176306759316
O           -0.59976767679803        1.07191193093435        0.11815487284960
C            1.72423984233592        0.37085185866250       -0.24799092718833
O            2.82582449448695        0.04286762779278        0.09039384199327
H           -2.94879140377820       -1.00075923959993       -0.51010462045848
H            0.09083366712704       -1.71055070315678       -0.20099352495490
H           -0.53561979766004       -1.48103594455039        1.45324065987491
H            0.75747711438171        0.62434248381917        1.66451111570833
H            1.49443798671161        0.70970820047455       -1.27517798406474

          :  Hamiltonian                  GFN2-xTB          :
         :: total energy             -22.110114249507 Eh    ::
         :: gradient norm              0.000112273998 Eh/a0 ::
         :: HOMO-LUMO gap              2.806534419428 eV    ::
         :: SCC energy               -22.343049231928 Eh    ::
         :: -> dispersion             -0.007064304982 Eh    ::
         :: -> Gsolv                  -0.010411869853 Eh    ::
         :: repulsion energy           0.232934982421 Eh    ::

    * Orbital Energies and Occupations

         #    Occupation            Energy/Eh            Energy/eV
      -------------------------------------------------------------
         1        2.0000           -0.7558039             -20.5665
       ...           ...                  ...                  ...
         7        2.0000           -0.6136879             -16.6993
         8        2.0000           -0.5983755             -16.2826
         9        2.0000           -0.5963025             -16.2262
        10        2.0000           -0.5723163             -15.5735
        11        2.0000           -0.5587959             -15.2056
        12        2.0000           -0.5368670             -14.6089
        13        2.0000           -0.5288458             -14.3906
        14        2.0000           -0.5124685             -13.9450
        15        2.0000           -0.5070078             -13.7964
        16        2.0000           -0.4885295             -13.2936
        17        2.0000           -0.4521038             -12.3024
        18        2.0000           -0.4270162             -11.6197
        19        2.0000           -0.4021804             -10.9439 (HOMO)
        20                         -0.2990422              -8.1374 (LUMO)
        21                         -0.2345937              -6.3836
        22                         -0.0418947              -1.1400
        23                         -0.0196231              -0.5340
        24                          0.0547244               1.4891
        25                          0.0677037               1.8423
        26                          0.1006089               2.7377
        27                          0.1147882               3.1235
        28                          0.1714513               4.6654
        29                          0.2185270               5.9464
        30                          0.2532821               6.8922
       ...                                ...                  ...
        33                          0.6519759              17.7412
      -------------------------------------------------------------
                  HL-Gap            0.1031382 Eh            2.8065 eV

     #   Z          covCN         q      C6AA      α(0)
     1   7 N        1.771    -0.344    29.741     8.075
     2   6 C        3.181     0.256    22.352     7.718
     3   6 C        3.846    -0.090    22.185     6.700
     4   6 C        4.163     0.094    18.950     6.183
     5   8 O        1.747    -0.269    18.458     5.801
     6   6 C        2.756     0.209    23.563     7.949
     7   8 O        0.856    -0.311    19.974     5.992
     8   1 H        0.860     0.174     1.250     1.751
     9   1 H        0.925     0.070     2.082     2.256
    10   1 H        0.925     0.080     1.974     2.197
    11   1 H        0.924     0.077     2.006     2.215
    12   1 H        0.922     0.052     2.289     2.366

Wiberg/Mayer (AO) data.
largest (>0.10) Wiberg bond orders for each atom

     #   Z sym  total        # sym  WBO       # sym  WBO       # sym  WBO
 ---------------------------------------------------------------------------
     1   7 N    3.046 --     2 C    1.855     8 H    0.936     5 O    0.136
     2   6 C    3.927 --     1 N    1.855     5 O    1.076     3 C    0.956
     3   6 C    3.982 --     9 H    0.965    10 H    0.962     2 C    0.956
                             4 C    0.952
     4   6 C    3.936 --     6 C    0.991     5 O    0.953     3 C    0.952
                            11 H    0.950
     5   8 O    2.246 --     2 C    1.076     4 C    0.953     1 N    0.136
     6   6 C    3.912 --     7 O    1.934     4 C    0.991    12 H    0.928
     7   8 O    2.101 --     6 C    1.934
     8   1 H    0.970 --     1 N    0.936
     9   1 H    0.995 --     3 C    0.965
    10   1 H    0.994 --     3 C    0.962
    11   1 H    0.994 --     4 C    0.950
    12   1 H    0.997 --     6 C    0.928
 ---------------------------------------------------------------------------

molecular dipole:
                 x           y           z       tot (Debye)
 q only:       -0.329      -0.787       0.253
   full:       -0.188      -1.037       0.363       2.834

           -------------------------------------------------
          | TOTAL ENERGY              -22.110114249507 Eh   |
          | GRADIENT NORM               0.000112273998 Eh/α |
          | HOMO-LUMO GAP               2.806534419428 eV   |
           -------------------------------------------------

 * finished run on 2024/08/07 at 21:17:08.781
