   * xtb version 6.5.1 (fef0646) compiled by 'conda@b96dff2e9fd6' on 2023-01-04
          program call               : xtb crest_best.xyz --opt normal -c 0 --iterations 4000

   ID    Z sym.   atoms
    1    6 C      1, 3-14, 16-22, 24-29, 31
    2   16 S      2
    3    7 N      15, 23
    4   14 Si     30
    5    1 H      32-49

          :  Hamiltonian                  GFN2-xTB          :
 * total energy  :   -77.5973234 Eh     change       -0.3516774E-08 Eh
 * total energy  :   -77.6221158 Eh     change       -0.2479234E-01 Eh
 * total energy  :   -77.6302776 Eh     change       -0.8161795E-02 Eh
 * total energy  :   -77.6322051 Eh     change       -0.1927489E-02 Eh
 * total energy  :   -77.6332023 Eh     change       -0.9972584E-03 Eh
 * total energy  :   -77.6337319 Eh     change       -0.5295782E-03 Eh
 * total energy  :   -77.6342000 Eh     change       -0.4681535E-03 Eh
 * total energy  :   -77.6345581 Eh     change       -0.3580479E-03 Eh
 * total energy  :   -77.6347965 Eh     change       -0.2384437E-03 Eh
 * total energy  :   -77.6349547 Eh     change       -0.1582107E-03 Eh
 * total energy  :   -77.6362855 Eh     change       -0.3032561E-04 Eh
 * total energy  :   -77.6363213 Eh     change       -0.3579003E-04 Eh
 * total energy  :   -77.6363615 Eh     change       -0.4020863E-04 Eh
 * total energy  :   -77.6363969 Eh     change       -0.3533992E-04 Eh
 * total energy  :   -77.6364191 Eh     change       -0.2217295E-04 Eh
 * total energy  :   -77.6364317 Eh     change       -0.1262966E-04 Eh
 * total energy  :   -77.6364394 Eh     change       -0.7750639E-05 Eh
 * total energy  :   -77.6364449 Eh     change       -0.5493268E-05 Eh
 * total energy  :   -77.6364496 Eh     change       -0.4666473E-05 Eh
   *** GEOMETRY OPTIMIZATION CONVERGED AFTER 42 ITERATIONS ***

 final structure:
================
49
 xtb: 6.5.1 (fef0646)
C           -6.22019885781630       -0.29240603625095       -1.17141462564644
S           -5.01660000464319       -1.51191336857753       -1.40342925597522
C           -3.90873498187961       -0.70421797507642       -0.30396751159028
C           -2.62489973969106       -1.28809046084209       -0.07847283570703
C           -2.14195993987143       -2.38793714653723       -0.71367378419021
C           -0.81981139691054       -2.68217064038823       -0.24521982752389
C            0.25637315720592       -3.44462426143917       -0.56499955138498
C            1.33744880814545       -3.12533373543188        0.41329476194653
C            0.76276195439390       -1.93362570693077        1.21222998682526
C            2.52887315807947       -2.17165533694036        0.25874878287753
C           -0.49473693042874       -1.70219781977807        0.78663765424339
C           -1.61592688400154       -0.72686208098061        0.90599135759566
C            3.71336654459413       -1.64244100643983       -0.30400112453359
C            4.67911392827362       -1.69441648285374       -1.27104663403273
N            5.48934398605729       -0.61134243068255       -1.20551020376252
C            5.17283224861549        0.24497059829442       -0.06634269896291
C            3.93606653104743       -0.40158273031494        0.43218088511386
C            2.91901038600916       -0.11173733691089        1.30474853495193
C            2.76776524366563        1.11933605400380        2.02282235468315
C            3.32286947695729        2.28140118741849        1.63161502755232
C            4.08994359873527        2.54019906071094        0.43059783425172
C            4.13268587947106        3.77808900971603       -0.18045341531433
N            4.86837985714506        3.68829927686140       -1.31484420021712
C            5.33560287780692        2.41794801114648       -1.44853562587873
C            4.88024532258727        1.67765995625942       -0.39088059281041
C            2.05303011223627       -1.26359487284794        1.19306955215366
C           -4.49361456801519        0.44322671690527        0.18795896069341
C           -4.03118493842786        1.46245396815327        1.10029378302716
C           -4.88676438635107        2.46895454048517        1.34614692624269
Si          -6.50357398684254        2.26496835210026        0.40329867093343
C           -5.81847429549070        0.67094002818990       -0.31769601513144
H           -7.15186775673067       -0.38239971131081       -1.69509679256720
H           -2.66804541261422       -2.94805311529029       -1.46726411524153
H            0.30103520342533       -4.24695335276866       -1.27933817992717
H            1.62458469710108       -4.01029184048455        0.99016893947002
H           -1.30366500556522        0.28163111559911        0.61899105605283
H           -2.02506094887280       -0.68368233982054        1.91893826821564
H            4.82969198711341       -2.42619929227095       -2.04621719680528
H            6.34397077648057       -0.52099704404451       -1.72590882417684
H            5.99848133809891        0.19031243546672        0.66425677277937
H            2.12172575114793        1.10893285456616        2.89081916557846
H            3.10611513290566        3.17225791948996        2.20880677400633
H            3.65747538868100        4.69445181563447        0.10899592138231
H            5.05195114743861        4.44522107270593       -1.95181936890701
H            5.94733429107157        2.13401815983614       -2.28218688367235
H           -3.05155562525930        1.40218915401631        1.54751106778825
H           -4.62312078348713        3.27412142961674        2.01383040245047
H           -6.73969198403046        3.29594594749757       -0.61031202533059
H           -7.67684228337339        2.05916404162680        1.25528453507889

          :  Hamiltonian                  GFN2-xTB          :
         :: total energy             -77.636449610294 Eh    ::
         :: gradient norm              0.000328438599 Eh/a0 ::
         :: HOMO-LUMO gap              1.423677800757 eV    ::
         :: SCC energy               -78.958602330671 Eh    ::
         :: -> dispersion             -0.065080282759 Eh    ::
         :: repulsion energy           1.321783532620 Eh    ::

    * Orbital Energies and Occupations

         #    Occupation            Energy/Eh            Energy/eV
      -------------------------------------------------------------
         1        2.0000           -0.7271814             -19.7876
       ...           ...                  ...                  ...
        61        2.0000           -0.4102087             -11.1623
        62        2.0000           -0.4047016             -11.0125
        63        2.0000           -0.4039889             -10.9931
        64        2.0000           -0.3975858             -10.8189
        65        2.0000           -0.3898739             -10.6090
        66        2.0000           -0.3835255             -10.4363
        67        2.0000           -0.3816286             -10.3846
        68        2.0000           -0.3754266             -10.2159
        69        2.0000           -0.3704387             -10.0802
        70        2.0000           -0.3668544              -9.9826
        71        2.0000           -0.3468018              -9.4370
        72        2.0000           -0.3364404              -9.1550
        73        2.0000           -0.3189904              -8.6802 (HOMO)
        74                         -0.2666713              -7.2565 (LUMO)
        75                         -0.2608221              -7.0973
        76                         -0.2357634              -6.4154
        77                         -0.2271459              -6.1810
        78                         -0.2083984              -5.6708
        79                         -0.1942436              -5.2856
        80                         -0.1866674              -5.0795
        81                         -0.1819353              -4.9507
        82                         -0.1807018              -4.9171
        83                         -0.1569068              -4.2697
        84                         -0.1333919              -3.6298
       ...                                ...                  ...
       152                          0.7955175              21.6471
      -------------------------------------------------------------
                  HL-Gap            0.0523192 Eh            1.4237 eV

     #   Z          covCN         q      C6AA      α(0)
     1   6 C        2.932    -0.016    28.407     8.741
     2  16 S        2.325    -0.071   143.991    20.196
     3   6 C        2.974     0.017    27.620     8.621
     4   6 C        3.078     0.002    27.894     8.659
     5   6 C        2.953    -0.043    29.059     8.842
     6   6 C        3.142    -0.001    27.810     8.629
     7   6 C        2.944    -0.060    29.487     8.906
     8   6 C        4.157    -0.023    20.904     6.494
     9   6 C        3.468    -0.016    23.042     7.208
    10   6 C        3.491    -0.032    22.956     7.131
    11   6 C        3.083    -0.023    28.491     8.750
    12   6 C        3.840    -0.052    21.470     6.592
    13   6 C        3.110    -0.030    28.605     8.762
    14   6 C        2.933     0.038    27.144     8.544
    15   7 N        2.764    -0.128    23.768     7.241
    16   6 C        3.840     0.047    19.754     6.323
    17   6 C        3.280    -0.033    27.330     8.412
    18   6 C        3.010    -0.012    28.289     8.725
    19   6 C        2.894    -0.038    28.946     8.821
    20   6 C        2.899    -0.047    29.168     8.855
    21   6 C        3.084    -0.017    28.338     8.727
    22   6 C        3.047    -0.021    28.479     8.753
    23   7 N        2.803    -0.078    22.760     7.086
    24   6 C        3.027    -0.025    28.592     8.771
    25   6 C        3.117    -0.028    28.516     8.747
    26   6 C        3.373    -0.023    25.244     7.850
    27   6 C        3.236    -0.020    27.615     8.526
    28   6 C        2.978    -0.031    28.773     8.799
    29   6 C        2.809    -0.146    31.730     9.229
    30  14 Si       3.732     0.446    98.359    18.986
    31   6 C        3.054    -0.121    31.014     9.133
    32   1 H        0.926     0.029     2.603     2.523
    33   1 H        0.926     0.032     2.562     2.503
    34   1 H        0.926     0.019     2.743     2.590
    35   1 H        0.924     0.036     2.503     2.474
    36   1 H        0.924     0.048     2.341     2.393
    37   1 H        0.924     0.046     2.367     2.406
    38   1 H        0.926     0.042     2.427     2.436
    39   1 H        0.860     0.154     1.372     1.834
    40   1 H        0.923     0.045     2.381     2.413
    41   1 H        0.925     0.027     2.624     2.533
    42   1 H        0.925     0.022     2.698     2.569
    43   1 H        0.926     0.032     2.558     2.501
    44   1 H        0.860     0.158     1.345     1.817
    45   1 H        0.926     0.023     2.685     2.562
    46   1 H        0.926     0.026     2.647     2.544
    47   1 H        0.926     0.016     2.796     2.615
    48   1 H        0.918    -0.087     5.126     3.541
    49   1 H        0.918    -0.086     5.104     3.534

Wiberg/Mayer (AO) data.
largest (>0.10) Wiberg bond orders for each atom

     #   Z sym  total        # sym  WBO       # sym  WBO       # sym  WBO
 ---------------------------------------------------------------------------
     1   6 C    3.941 --    31 C    1.662     2 S    1.159    32 H    0.971
     2  16 S    2.577 --     1 C    1.159     3 C    1.102
     3   6 C    3.948 --    27 C    1.454     4 C    1.169     2 S    1.102
     4   6 C    3.984 --     5 C    1.647     3 C    1.169    12 C    0.998
     5   6 C    3.957 --     4 C    1.647     6 C    1.145    33 H    0.964
     6   6 C    3.980 --     7 C    1.626     5 C    1.145    11 C    1.090
     7   6 C    3.920 --     6 C    1.626     8 C    1.037    34 H    0.971
     8   6 C    3.982 --     7 C    1.037     9 C    0.956    35 H    0.941
                            10 C    0.935
     9   6 C    3.934 --    11 C    1.636    26 C    1.086     8 C    0.956
    10   6 C    3.947 --    26 C    1.477    13 C    1.198     8 C    0.935
    11   6 C    3.942 --     9 C    1.636     6 C    1.090    12 C    1.015
    12   6 C    3.997 --    11 C    1.015     4 C    0.998    37 H    0.950
                            36 H    0.945
    13   6 C    3.971 --    14 C    1.468    10 C    1.198    17 C    1.099
    14   6 C    3.939 --    13 C    1.468    15 N    1.288    38 H    0.964
    15   7 N    3.467 --    14 C    1.288    16 C    0.974    39 H    0.950
    16   6 C    3.965 --    17 C    1.004    25 C    0.975    15 N    0.974
                            40 H    0.925
    17   6 C    3.968 --    18 C    1.516    13 C    1.099    16 C    1.004
    18   6 C    3.980 --    17 C    1.516    19 C    1.140    26 C    1.125
    19   6 C    3.991 --    20 C    1.736    18 C    1.140    41 H    0.966
    20   6 C    3.988 --    19 C    1.736    21 C    1.116    42 H    0.966
    21   6 C    3.979 --    22 C    1.470    25 C    1.241    20 C    1.116
    22   6 C    3.934 --    21 C    1.470    23 N    1.241    43 H    0.971
                            24 C    0.135
    23   7 N    3.584 --    22 C    1.241    24 C    1.216    44 H    0.948
    24   6 C    3.937 --    25 C    1.540    23 N    1.216    45 H    0.971
                            22 C    0.135
    25   6 C    3.970 --    24 C    1.540    21 C    1.241    16 C    0.975
    26   6 C    3.962 --    10 C    1.477    18 C    1.125     9 C    1.086
    27   6 C    3.959 --     3 C    1.454    31 C    1.201    28 C    1.132
    28   6 C    3.989 --    29 C    1.820    27 C    1.132    46 H    0.961
    29   6 C    3.930 --    28 C    1.820    47 H    0.980    30 Si   0.919
    30  14 Si   3.645 --    29 C    0.919    49 H    0.881    48 H    0.881
                            31 C    0.868
    31   6 C    3.959 --     1 C    1.662    27 C    1.201    30 Si   0.868
    32   1 H    0.998 --     1 C    0.971
    33   1 H    0.998 --     5 C    0.964
    34   1 H    0.999 --     7 C    0.971
    35   1 H    0.995 --     8 C    0.941
    36   1 H    0.996 --    12 C    0.945
    37   1 H    0.996 --    12 C    0.950
    38   1 H    0.997 --    14 C    0.964
    39   1 H    0.976 --    15 N    0.950
    40   1 H    0.997 --    16 C    0.925
    41   1 H    0.998 --    19 C    0.966
    42   1 H    0.998 --    20 C    0.966
    43   1 H    0.998 --    22 C    0.971
    44   1 H    0.974 --    23 N    0.948
    45   1 H    0.999 --    24 C    0.971
    46   1 H    0.999 --    28 C    0.961
    47   1 H    0.999 --    29 C    0.980
    48   1 H    0.992 --    30 Si   0.881
    49   1 H    0.992 --    30 Si   0.881
 ---------------------------------------------------------------------------

molecular dipole:
                 x           y           z       tot (Debye)
 q only:        1.580       1.388      -0.749
   full:        2.036       1.613      -1.105       7.175

           -------------------------------------------------
          | TOTAL ENERGY              -77.636449610294 Eh   |
          | GRADIENT NORM               0.000328438599 Eh/α |
          | HOMO-LUMO GAP               1.423677800757 eV   |
           -------------------------------------------------

 * finished run on 2024/06/14 at 03:01:04.198
