   * xtb version 6.7.1 (edcfbbe) compiled by 'albert@albert-system' on 2024-07-22

   ID    Z sym.   atoms
    1    6 C      1-6
    2    8 O      7
    3    1 H      8-15

          program call               : xtb crest_best.xyz --gfn 2 --alpb toluene --opt vtight -c 0 --iterations 40
      * Solvation model:               ALPB
        Solvent                        toluene
        Solvent mass                       7.8110E+01 g/mol
          :  Hamiltonian                  GFN2-xTB          :
 * total energy  :   -20.9122087 Eh     change       -0.2662013E-09 Eh
 * total energy  :   -20.9151144 Eh     change       -0.2905702E-02 Eh
 * total energy  :   -20.9155393 Eh     change       -0.4249161E-03 Eh
 * total energy  :   -20.9155860 Eh     change       -0.4669654E-04 Eh
 * total energy  :   -20.9156220 Eh     change       -0.3601592E-04 Eh
 * total energy  :   -20.9156447 Eh     change       -0.2266423E-04 Eh
 * total energy  :   -20.9157003 Eh     change       -0.5568735E-04 Eh
 * total energy  :   -20.9157496 Eh     change       -0.4923250E-04 Eh
 * total energy  :   -20.9158027 Eh     change       -0.5313695E-04 Eh
 * total energy  :   -20.9159141 Eh     change       -0.1114194E-03 Eh
 * total energy  :   -20.9166984 Eh     change        0.2438539E-07 Eh
 * total energy  :   -20.9167002 Eh     change       -0.1829616E-05 Eh
 * total energy  :   -20.9167011 Eh     change       -0.8825591E-06 Eh
 * total energy  :   -20.9167016 Eh     change       -0.4574870E-06 Eh
 * total energy  :   -20.9167021 Eh     change       -0.5579916E-06 Eh
 * total energy  :   -20.9167024 Eh     change       -0.2476016E-06 Eh
 * total energy  :   -20.9167028 Eh     change       -0.4324931E-06 Eh
 * total energy  :   -20.9167029 Eh     change       -0.1103924E-06 Eh
 * total energy  :   -20.9167030 Eh     change       -0.4909820E-07 Eh
   *** GEOMETRY OPTIMIZATION CONVERGED AFTER 41 ITERATIONS ***

 final structure:
================
15
 xtb: 6.7.1 (edcfbbe)
C           -3.34456803055175       -0.34178741228294        0.23552870960347
C           -1.93874445987645       -0.11022757710917       -0.01261945963110
C           -0.77858485725064        0.09084923320092       -0.23805038680273
C            0.63887470901639        0.34657155019164       -0.46062178341767
C            1.08391002992123        1.66570256983783        0.17149443913148
C            1.40506842191621       -0.83753625256870        0.08237872904617
O            2.30073595229509       -0.78810235435325        0.87950538301785
H           -3.46442612163833       -1.07215218766452        1.03551687124970
H           -3.82620180033502       -0.71953579301097       -0.66609957650788
H           -3.82650897599539        0.58967835310973        0.53147254804381
H            0.81782436782159        0.36779459289232       -1.54559535246644
H            0.90602147162979        1.64207793190674        1.24442586941540
H            0.53095156072117        2.49684110155243       -0.25900322932152
H            2.14793803049284        1.81543278995624        0.00245519270566
H            1.04990658433333       -1.80658593915829       -0.32239163286619

          :  Hamiltonian                  GFN2-xTB          :
         :: total energy             -20.916702956611 Eh    ::
         :: gradient norm              0.000064066482 Eh/a0 ::
         :: HOMO-LUMO gap              3.419985259828 eV    ::
         :: SCC energy               -21.274577776642 Eh    ::
         :: -> dispersion             -0.008443455933 Eh    ::
         :: -> Gsolv                  -0.010784718803 Eh    ::
         :: repulsion energy           0.357874820031 Eh    ::

    * Orbital Energies and Occupations

         #    Occupation            Energy/Eh            Energy/eV
      -------------------------------------------------------------
         1        2.0000           -0.7254339             -19.7401
       ...           ...                  ...                  ...
         7        2.0000           -0.5666615             -15.4196
         8        2.0000           -0.5558640             -15.1258
         9        2.0000           -0.5277542             -14.3609
        10        2.0000           -0.5167391             -14.0612
        11        2.0000           -0.4990362             -13.5795
        12        2.0000           -0.4921994             -13.3934
        13        2.0000           -0.4905947             -13.3498
        14        2.0000           -0.4809094             -13.0862
        15        2.0000           -0.4648727             -12.6498
        16        2.0000           -0.4547919             -12.3755
        17        2.0000           -0.4210658             -11.4578
        18        2.0000           -0.4033893             -10.9768
        19        2.0000           -0.3949978             -10.7484 (HOMO)
        20                         -0.2693157              -7.3285 (LUMO)
        21                         -0.1528804              -4.1601
        22                         -0.1489983              -4.0544
        23                          0.0453626               1.2344
        24                          0.0748636               2.0371
        25                          0.1355665               3.6890
        26                          0.1588289               4.3220
        27                          0.1690484               4.6000
        28                          0.1781360               4.8473
        29                          0.2044025               5.5621
        30                          0.2291416               6.2353
       ...                                ...                  ...
        36                          1.4062225              38.2653
      -------------------------------------------------------------
                  HL-Gap            0.1256821 Eh            3.4200 eV

     #   Z          covCN         q      C6AA      α(0)
     1   6 C        3.753    -0.089    22.254     6.727
     2   6 C        1.960    -0.041    32.181     9.161
     3   6 C        1.984    -0.063    32.750     9.242
     4   6 C        3.854    -0.010    20.725     6.475
     5   6 C        3.758    -0.098    22.419     6.751
     6   6 C        2.774     0.222    23.320     7.909
     7   8 O        0.856    -0.341    20.533     6.075
     8   1 H        0.925     0.060     2.201     2.320
     9   1 H        0.925     0.060     2.194     2.316
    10   1 H        0.925     0.062     2.178     2.308
    11   1 H        0.923     0.074     2.046     2.237
    12   1 H        0.925     0.049     2.328     2.386
    13   1 H        0.925     0.047     2.358     2.401
    14   1 H        0.925     0.049     2.337     2.391
    15   1 H        0.922     0.019     2.751     2.594

Wiberg/Mayer (AO) data.
largest (>0.10) Wiberg bond orders for each atom

     #   Z sym  total        # sym  WBO       # sym  WBO       # sym  WBO
 ---------------------------------------------------------------------------
     1   6 C    3.994 --     2 C    1.068     9 H    0.964     8 H    0.963
                            10 H    0.963
     2   6 C    3.979 --     3 C    2.800     1 C    1.068
     3   6 C    3.974 --     2 C    2.800     4 C    1.012
     4   6 C    3.996 --     3 C    1.012     5 C    0.991     6 C    0.978
                            11 H    0.917
     5   6 C    3.993 --     4 C    0.991    13 H    0.987    12 H    0.987
                            14 H    0.984
     6   6 C    3.905 --     7 O    1.917     4 C    0.978    15 H    0.932
     7   8 O    2.088 --     6 C    1.917
     8   1 H    0.996 --     1 C    0.963
     9   1 H    0.996 --     1 C    0.964
    10   1 H    0.995 --     1 C    0.963
    11   1 H    0.995 --     4 C    0.917
    12   1 H    0.998 --     5 C    0.987
    13   1 H    0.998 --     5 C    0.987
    14   1 H    0.997 --     5 C    0.984
    15   1 H    1.000 --     6 C    0.932
 ---------------------------------------------------------------------------

molecular dipole:
                 x           y           z       tot (Debye)
 q only:       -1.094       0.290      -0.595
   full:       -1.188       0.208      -0.722       3.572

           -------------------------------------------------
          | TOTAL ENERGY              -20.916702956611 Eh   |
          | GRADIENT NORM               0.000064066482 Eh/α |
          | HOMO-LUMO GAP               3.419985259828 eV   |
           -------------------------------------------------

 * finished run on 2024/08/07 at 20:52:38.101
