   * xtb version 6.7.1 (edcfbbe) compiled by 'albert@albert-system' on 2024-07-22

   ID    Z sym.   atoms
    1    6 C      1-3, 5, 6
    2    7 N      4
    3    1 H      7-11

          program call               : xtb crest_best.xyz --gfn 2 --alpb toluene --opt vtight -c 0 --iterations 40
      * Solvation model:               ALPB
        Solvent                        toluene
        Solvent mass                       7.8110E+01 g/mol
          :  Hamiltonian                  GFN2-xTB          :
 * total energy  :   -16.1557800 Eh     change       -0.1255529E-10 Eh
 * total energy  :   -16.1566924 Eh     change       -0.9124120E-03 Eh
 * total energy  :   -16.1568034 Eh     change       -0.1110299E-03 Eh
 * total energy  :   -16.1568205 Eh     change       -0.1712065E-04 Eh
 * total energy  :   -16.1568229 Eh     change       -0.2323163E-05 Eh
 * total energy  :   -16.1568232 Eh     change       -0.3440467E-06 Eh
 * total energy  :   -16.1568232 Eh     change       -0.1187544E-07 Eh
   *** GEOMETRY OPTIMIZATION CONVERGED AFTER 7 ITERATIONS ***

 final structure:
================
11
 xtb: 6.7.1 (edcfbbe)
C            1.40799726646329       -0.00001019793334        0.00002107961009
C            0.70095573114755        1.19240557922399        0.00001759598218
C           -0.68514612155383        1.13374680617394        0.00001835190247
N           -1.36632094389046        0.00001158864209        0.00002366087910
C           -0.68516392391519       -1.13373433613471        0.00002664239595
C            0.70093701565714       -1.19241488487073        0.00002510029541
H            2.48901579264951       -0.00001866640306        0.00002010529395
H            1.21083400837207        2.14379432821284        0.00001684810505
H           -1.28361458905974        2.03626597299719        0.00002302726897
H           -1.28364667313815       -2.03624403272139        0.00002976015508
H            1.21080038566782       -2.14381162068683        0.00002641551174

          :  Hamiltonian                  GFN2-xTB          :
         :: total energy             -16.156823220212 Eh    ::
         :: gradient norm              0.000022913681 Eh/a0 ::
         :: HOMO-LUMO gap              3.221261783785 eV    ::
         :: SCC energy               -16.441574989234 Eh    ::
         :: -> dispersion             -0.007242202508 Eh    ::
         :: -> Gsolv                  -0.006740223419 Eh    ::
         :: repulsion energy           0.284751769022 Eh    ::

    * Orbital Energies and Occupations

         #    Occupation            Energy/Eh            Energy/eV
      -------------------------------------------------------------
         1        2.0000           -0.6631368             -18.0449
       ...           ...                  ...                  ...
         3        2.0000           -0.6280998             -17.0915
         4        2.0000           -0.5907681             -16.0756
         5        2.0000           -0.5845136             -15.9054
         6        2.0000           -0.5405546             -14.7092
         7        2.0000           -0.5159404             -14.0395
         8        2.0000           -0.5065687             -13.7844
         9        2.0000           -0.5059777             -13.7684
        10        2.0000           -0.4879942             -13.2790
        11        2.0000           -0.4717804             -12.8378
        12        2.0000           -0.4395945             -11.9620
        13        2.0000           -0.4377443             -11.9116
        14        2.0000           -0.4185677             -11.3898
        15        2.0000           -0.3682802             -10.0214 (HOMO)
        16                         -0.2499010              -6.8002 (LUMO)
        17                         -0.2380040              -6.4764
        18                         -0.1116751              -3.0388
        19                          0.1155768               3.1450
        20                          0.1263071               3.4370
        21                          0.1571541               4.2764
        22                          0.1787769               4.8648
        23                          0.1800195               4.8986
        24                          0.2995393               8.1509
        25                          0.3879614              10.5570
        26                          0.4186147              11.3911
       ...                                ...                  ...
        29                          0.6158726              16.7587
      -------------------------------------------------------------
                  HL-Gap            0.1183792 Eh            3.2213 eV

     #   Z          covCN         q      C6AA      α(0)
     1   6 C        2.929    -0.010    28.267     8.719
     2   6 C        2.914    -0.038    28.937     8.821
     3   6 C        2.914     0.060    26.665     8.468
     4   7 N        1.835    -0.224    26.726     7.661
     5   6 C        2.914     0.060    26.665     8.468
     6   6 C        2.914    -0.038    28.937     8.821
     7   1 H        0.926     0.038     2.478     2.462
     8   1 H        0.926     0.038     2.474     2.460
     9   1 H        0.925     0.038     2.476     2.461
    10   1 H        0.925     0.038     2.476     2.461
    11   1 H        0.926     0.038     2.474     2.460

Wiberg/Mayer (AO) data.
largest (>0.10) Wiberg bond orders for each atom

     #   Z sym  total        # sym  WBO       # sym  WBO       # sym  WBO
 ---------------------------------------------------------------------------
     1   6 C    3.991 --     2 C    1.443     6 C    1.443     7 H    0.970
                             4 N    0.104
     2   6 C    3.992 --     1 C    1.443     3 C    1.427     8 H    0.970
                             5 C    0.117
     3   6 C    3.982 --     4 N    1.441     2 C    1.427     9 H    0.964
                             6 C    0.117
     4   7 N    3.062 --     3 C    1.441     5 C    1.441     1 C    0.104
     5   6 C    3.982 --     4 N    1.441     6 C    1.427    10 H    0.964
                             2 C    0.117
     6   6 C    3.992 --     1 C    1.443     5 C    1.427    11 H    0.970
                             3 C    0.117
     7   1 H    0.999 --     1 C    0.970
     8   1 H    0.999 --     2 C    0.970
     9   1 H    0.999 --     3 C    0.964
    10   1 H    0.999 --     5 C    0.964
    11   1 H    0.999 --     6 C    0.970
 ---------------------------------------------------------------------------

molecular dipole:
                 x           y           z       tot (Debye)
 q only:        0.465      -0.000      -0.000
   full:        0.864      -0.000      -0.000       2.197

           -------------------------------------------------
          | TOTAL ENERGY              -16.156823220212 Eh   |
          | GRADIENT NORM               0.000022913681 Eh/α |
          | HOMO-LUMO GAP               3.221261783785 eV   |
           -------------------------------------------------

 * finished run on 2024/08/07 at 20:43:24.321
