   * xtb version 6.5.1 (fef0646) compiled by 'conda@b96dff2e9fd6' on 2023-01-04
          program call               : xtb crest_best.xyz --opt normal -c 0 --iterations 4000

   ID    Z sym.   atoms
    1    7 N      1, 21
    2    6 C      2-13, 15-20, 22-28, 30-32
    3    8 O      14, 29
    4    1 H      33-48

          :  Hamiltonian                  GFN2-xTB          :
 * total energy  :   -81.8789192 Eh     change       -0.8418226E-09 Eh
 * total energy  :   -81.8922286 Eh     change       -0.1330936E-01 Eh
 * total energy  :   -81.8968875 Eh     change       -0.4658977E-02 Eh
 * total energy  :   -81.8974917 Eh     change       -0.6041885E-03 Eh
 * total energy  :   -81.8977339 Eh     change       -0.2421590E-03 Eh
 * total energy  :   -81.8977842 Eh     change       -0.5031183E-04 Eh
 * total energy  :   -81.8978257 Eh     change       -0.4149029E-04 Eh
 * total energy  :   -81.8978556 Eh     change       -0.2993211E-04 Eh
 * total energy  :   -81.8978815 Eh     change       -0.2586495E-04 Eh
 * total energy  :   -81.8979011 Eh     change       -0.1959015E-04 Eh
 * total energy  :   -81.8979182 Eh     change       -0.1715050E-04 Eh
 * total energy  :   -81.8979265 Eh     change       -0.8294175E-05 Eh
 * total energy  :   -81.8979368 Eh     change       -0.1023797E-04 Eh
 * total energy  :   -81.8979403 Eh     change       -0.3575584E-05 Eh
   *** GEOMETRY OPTIMIZATION CONVERGED AFTER 14 ITERATIONS ***

 final structure:
================
48
 xtb: 6.5.1 (fef0646)
N            6.65272231521284        0.92203067394135       -0.12969770460268
C            7.98102244938819        0.66856080052133       -0.20099822573820
C            8.15156172869598       -0.68286477416951       -0.35552232563643
C            6.87452049289881       -1.26052991549270       -0.38098851509522
C            5.94549065205536       -0.24381714499292       -0.23938919334098
C            4.50166949274520       -0.30039291672050       -0.19432185316168
C            3.82989282717454       -1.51283354348206       -0.42168740692166
C            2.46376369041194       -1.60059248196585       -0.34550666050869
C            1.66422985896857       -0.48921652798311       -0.03266406079549
C            2.33137210580294        0.75306243349677        0.10120301797275
C            3.71929947659377        0.82448565743478        0.03971322700297
C            1.52886590713585        1.93327055393492        0.25369344640263
C            1.80860994047464        3.26853378615892        0.39326906582724
O            0.67267596950178        3.98368308192673        0.42717412801765
C           -0.35828462409419        3.13334079720178        0.30904061364402
C            0.10189553595228        1.84749841808491        0.20025133704919
C           -0.56123778911320        0.58122342302742        0.11378864629296
C           -1.93717186011544        0.46699013407294        0.06895956041613
C           -7.20482635843307       -0.63970942292267       -0.28579155761879
C           -8.47788347406885       -0.18920308419408       -0.37867341361321
N           -8.42727844390341        1.18542883838673       -0.40581250479250
C           -7.13448438646313        1.58454402234789       -0.33254859726505
C           -6.31676462338069        0.46451445315194       -0.25249402919923
C           -4.89377434292586        0.46049279430469       -0.15132462769252
C           -4.14859758090021       -0.65760987123239       -0.05847342321549
C           -2.72204530335007       -0.63004088754543        0.05716736657335
C           -1.94386737001510       -1.83516030600700        0.21925101932340
C           -2.31450097879564       -3.13911004964433        0.43461867572726
O           -1.22858572454384       -3.90037437568966        0.60099000748804
C           -0.14315059561540       -3.12424907776074        0.48549462419620
C           -0.49841055192019       -1.81453242091915        0.23569551571909
C            0.22961257406141       -0.58665048958688        0.09244654125497
H            6.24569017522617        1.83514512064934       -0.02320259874530
H            8.70551325480446        1.45657292014014       -0.13717203438678
H            9.08668645261509       -1.19986725486107       -0.44107665243463
H            6.66506791331789       -2.30623923200701       -0.48393619633848
H            4.40178863152278       -2.39161294872805       -0.67388609419896
H            1.99051561204078       -2.53830661354800       -0.57889715485002
H            4.17075116458927        1.79652404753059        0.17305451866583
H            2.72664539444675        3.81454671288550        0.47898805141445
H           -1.34777739287230        3.54363542895078        0.32070431388433
H           -9.41052382855560       -0.71356940657448       -0.42801181345880
H           -9.22207745728126        1.80120401341589       -0.47477396706693
H           -6.86131843743660        2.62212437524475       -0.33413630005022
H           -4.39371260270447        1.42262824804261       -0.14460715831406
H           -4.63672215899637       -1.62101484063118       -0.06592002537748
H           -3.27097144041043       -3.61566836044117        0.50519022528430
H            0.79541899605847       -3.60759147595162        0.66360783866275

          :  Hamiltonian                  GFN2-xTB          :
         :: total energy             -81.897940360140 Eh    ::
         :: gradient norm              0.000428186347 Eh/a0 ::
         :: HOMO-LUMO gap              0.058511065818 eV    ::
         :: SCC energy               -83.292705419029 Eh    ::
         :: -> dispersion             -0.061554026045 Eh    ::
         :: repulsion energy           1.395614701616 Eh    ::

    * Orbital Energies and Occupations

         #    Occupation            Energy/Eh            Energy/eV
      -------------------------------------------------------------
         1        2.0000           -0.7438598             -20.2415
       ...           ...                  ...                  ...
        63        2.0000           -0.4255687             -11.5803
        64        2.0000           -0.4233418             -11.5197
        65        2.0000           -0.4186083             -11.3909
        66        2.0000           -0.4139224             -11.2634
        67        2.0000           -0.4084496             -11.1145
        68        2.0000           -0.3938555             -10.7174
        69        2.0000           -0.3920081             -10.6671
        70        2.0000           -0.3831243             -10.4253
        71        2.0000           -0.3756648             -10.2224
        72        2.0000           -0.3689908             -10.0407
        73        2.0000           -0.3620415              -9.8517
        74        2.0000           -0.3414513              -9.2914
        75        1.5123           -0.3239698              -8.8157 (HOMO)
        76        0.4877           -0.3218196              -8.7572 (LUMO)
        77                         -0.2785756              -7.5804
        78                         -0.2406347              -6.5480
        79                         -0.2350026              -6.3947
        80                         -0.2278005              -6.1988
        81                         -0.2108173              -5.7366
        82                         -0.1843446              -5.0163
        83                         -0.1755874              -4.7780
        84                         -0.1676715              -4.5626
        85                         -0.1541685              -4.1951
        86                         -0.1401108              -3.8126
       ...                                ...                  ...
       144                          0.7685722              20.9139
      -------------------------------------------------------------
                  HL-Gap            0.0021502 Eh            0.0585 eV

     #   Z          covCN         q      C6AA      α(0)
     1   7 N        2.823    -0.083    22.847     7.099
     2   6 C        3.033    -0.009    28.211     8.712
     3   6 C        3.046    -0.064    29.542     8.914
     4   6 C        3.066    -0.065    29.534     8.911
     5   6 C        3.077     0.026    27.341     8.573
     6   6 C        2.966     0.005    27.905     8.665
     7   6 C        2.924    -0.039    28.959     8.825
     8   6 C        2.920    -0.040    29.000     8.831
     9   6 C        2.977     0.004    27.923     8.668
    10   6 C        2.978     0.007    27.848     8.656
    11   6 C        2.928    -0.050    29.234     8.867
    12   6 C        3.073    -0.024    28.526     8.757
    13   6 C        3.048     0.058    26.653     8.467
    14   8 O        1.730    -0.171    16.882     5.548
    15   6 C        3.041     0.061    26.590     8.458
    16   6 C        3.082    -0.017    28.339     8.727
    17   6 C        2.974     0.019    27.579     8.614
    18   6 C        2.038    -0.062    32.679     9.233
    19   6 C        2.151    -0.111    33.759     9.393
    20   6 C        3.012    -0.009    28.229     8.715
    21   7 N        2.809    -0.087    22.937     7.113
    22   6 C        3.047    -0.012    28.272     8.721
    23   6 C        3.082    -0.006    28.082     8.687
    24   6 C        2.900    -0.024    28.597     8.768
    25   6 C        2.902    -0.045    29.111     8.847
    26   6 C        2.959     0.023    27.501     8.602
    27   6 C        3.117    -0.016    28.235     8.703
    28   6 C        3.025     0.059    26.647     8.467
    29   8 O        1.729    -0.164    16.776     5.530
    30   6 C        3.048     0.055    26.722     8.478
    31   6 C        3.054    -0.024    28.537     8.761
    32   6 C        2.976    -0.001    28.041     8.686
    33   1 H        0.860     0.157     1.355     1.823
    34   1 H        0.926     0.028     2.621     2.532
    35   1 H        0.926     0.026     2.637     2.540
    36   1 H        0.926     0.027     2.634     2.538
    37   1 H        0.926     0.037     2.495     2.470
    38   1 H        0.926     0.035     2.517     2.481
    39   1 H        0.926     0.018     2.762     2.599
    40   1 H        0.926     0.042     2.428     2.436
    41   1 H        0.926     0.049     2.334     2.389
    42   1 H        0.926     0.026     2.643     2.542
    43   1 H        0.860     0.154     1.377     1.838
    44   1 H        0.926     0.028     2.618     2.530
    45   1 H        0.925     0.033     2.544     2.494
    46   1 H        0.926     0.043     2.410     2.428
    47   1 H        0.926     0.052     2.297     2.370
    48   1 H        0.926     0.051     2.306     2.375

Wiberg/Mayer (AO) data.
largest (>0.10) Wiberg bond orders for each atom

     #   Z sym  total        # sym  WBO       # sym  WBO       # sym  WBO
 ---------------------------------------------------------------------------
     1   7 N    3.580 --     2 C    1.249     5 C    1.190    33 H    0.942
     2   6 C    3.928 --     3 C    1.520     1 N    1.249    34 H    0.971
                             5 C    0.119
     3   6 C    3.978 --     2 C    1.520     4 C    1.366    35 H    0.975
     4   6 C    3.970 --     5 C    1.449     3 C    1.366    36 H    0.973
     5   6 C    3.942 --     4 C    1.449     1 N    1.190     6 C    1.107
                             2 C    0.119
     6   6 C    3.968 --    11 C    1.395     7 C    1.309     5 C    1.107
     7   6 C    3.985 --     8 C    1.521     6 C    1.309    37 H    0.967
     8   6 C    3.974 --     7 C    1.521     9 C    1.317    38 H    0.962
     9   6 C    3.968 --     8 C    1.317    10 C    1.282    32 C    1.158
    10   6 C    3.976 --    11 C    1.382     9 C    1.282    12 C    1.125
    11   6 C    3.988 --     6 C    1.395    10 C    1.382    39 H    0.963
    12   6 C    3.977 --    13 C    1.504    16 C    1.189    10 C    1.125
    13   6 C    3.894 --    12 C    1.504    14 O    1.143    40 H    0.966
                            15 C    0.167
    14   8 O    2.457 --    15 C    1.146    13 C    1.143
    15   6 C    3.880 --    16 C    1.500    14 O    1.146    41 H    0.966
                            13 C    0.167
    16   6 C    3.968 --    15 C    1.500    12 C    1.189    17 C    1.118
    17   6 C    3.952 --    18 C    1.321    32 C    1.315    16 C    1.118
    18   6 C    3.131 --    26 C    1.533    17 C    1.321
    19   6 C    3.001 --    20 C    1.602    23 C    1.232
    20   6 C    3.904 --    19 C    1.602    21 N    1.163    42 H    0.971
                            22 C    0.130
    21   7 N    3.530 --    22 C    1.258    20 C    1.163    43 H    0.946
    22   6 C    3.871 --    23 C    1.403    21 N    1.258    44 H    0.967
                            20 C    0.130
    23   6 C    3.941 --    22 C    1.403    19 C    1.232    24 C    1.161
    24   6 C    3.961 --    25 C    1.687    23 C    1.161    45 H    0.957
    25   6 C    3.973 --    24 C    1.687    26 C    1.148    46 H    0.962
    26   6 C    3.945 --    18 C    1.533    25 C    1.148    27 C    1.079
    27   6 C    3.910 --    28 C    1.480    31 C    1.176    26 C    1.079
    28   6 C    3.881 --    27 C    1.480    29 O    1.152    47 H    0.965
                            30 C    0.184
    29   8 O    2.467 --    28 C    1.152    30 C    1.150
    30   6 C    3.869 --    31 C    1.467    29 O    1.150    48 H    0.960
                            28 C    0.184
    31   6 C    3.979 --    30 C    1.467    27 C    1.176    32 C    1.174
    32   6 C    3.912 --    17 C    1.315    31 C    1.174     9 C    1.158
    33   1 H    0.975 --     1 N    0.942
    34   1 H    0.999 --     2 C    0.971
    35   1 H    0.999 --     3 C    0.975
    36   1 H    0.999 --     4 C    0.973
    37   1 H    0.997 --     7 C    0.967
    38   1 H    0.998 --     8 C    0.962
    39   1 H    0.999 --    11 C    0.963
    40   1 H    0.998 --    13 C    0.966
    41   1 H    0.997 --    15 C    0.966
    42   1 H    0.998 --    20 C    0.971
    43   1 H    0.971 --    21 N    0.946
    44   1 H    0.994 --    22 C    0.967
    45   1 H    0.997 --    24 C    0.957
    46   1 H    0.997 --    25 C    0.962
    47   1 H    0.997 --    28 C    0.965
    48   1 H    0.997 --    30 C    0.960
 ---------------------------------------------------------------------------

molecular dipole:
                 x           y           z       tot (Debye)
 q only:       -0.060       0.737      -0.023
   full:       -0.338       1.265       0.008       3.328

           -------------------------------------------------
          | TOTAL ENERGY              -81.897940360140 Eh   |
          | GRADIENT NORM               0.000428186347 Eh/α |
          | HOMO-LUMO GAP               0.058511065818 eV   |
           -------------------------------------------------

 * finished run on 2024/06/14 at 03:01:44.703
