   * xtb version 6.5.1 (fef0646) compiled by 'conda@b96dff2e9fd6' on 2023-01-04
          program call               : xtb crest_best.xyz --opt normal -c 0 --iterations 4000

   ID    Z sym.   atoms
    1    6 C      1, 3, 4, 6, 8-10, 12, 14, 16-19, 21, 22, 24, 25, 27
    2    7 N      2, 11, 23, 26
    3   16 S      5, 7, 13, 15
    4   34 Se     20
    5    1 H      28-35

          :  Hamiltonian                  GFN2-xTB          :
 * total energy  :   -70.4430120 Eh     change       -0.3624280E-08 Eh
 * total energy  :   -70.4511564 Eh     change       -0.8144308E-02 Eh
 * total energy  :   -70.4534100 Eh     change       -0.2253600E-02 Eh
 * total energy  :   -70.4537488 Eh     change       -0.3388192E-03 Eh
 * total energy  :   -70.4538559 Eh     change       -0.1070853E-03 Eh
 * total energy  :   -70.4539020 Eh     change       -0.4609896E-04 Eh
 * total energy  :   -70.4539449 Eh     change       -0.4289970E-04 Eh
 * total energy  :   -70.4539783 Eh     change       -0.3347448E-04 Eh
 * total energy  :   -70.4540112 Eh     change       -0.3288530E-04 Eh
 * total energy  :   -70.4540351 Eh     change       -0.2384090E-04 Eh
 * total energy  :   -70.4541650 Eh     change       -0.9979553E-05 Eh
 * total energy  :   -70.4541732 Eh     change       -0.8181081E-05 Eh
 * total energy  :   -70.4541798 Eh     change       -0.6556830E-05 Eh
 * total energy  :   -70.4541857 Eh     change       -0.5921406E-05 Eh
 * total energy  :   -70.4541908 Eh     change       -0.5082609E-05 Eh
 * total energy  :   -70.4541964 Eh     change       -0.5658550E-05 Eh
 * total energy  :   -70.4542022 Eh     change       -0.5744474E-05 Eh
 * total energy  :   -70.4542074 Eh     change       -0.5236764E-05 Eh
 * total energy  :   -70.4542119 Eh     change       -0.4463234E-05 Eh
   *** GEOMETRY OPTIMIZATION CONVERGED AFTER 26 ITERATIONS ***

 final structure:
================
35
 xtb: 6.5.1 (fef0646)
C            7.88854445247694        0.25389576579874       -0.00067798839826
N            7.57668974480953        1.50145602648275       -0.00064980610566
C            6.24605583365861        1.68020610736793       -0.00052931053423
C            5.49289144318689        0.52466448921979       -0.00042320918909
S            6.55190814165339       -0.85465625056199       -0.00038766873812
C            4.08579190969506        0.37118536179586       -0.00025384890670
S            2.98218038441814        1.71210540766144       -0.00019277573946
C            1.58076307655307        0.69235778295947        0.00006198151614
C            0.25100870337708        1.16039639537161        0.00024272174093
C           -0.23729693476772        2.45515508238880        0.00018100100811
N           -1.56267526391675        2.57880073679758        0.00050164349779
C           -2.16506986951751        1.42324330299027        0.00074805482845
S           -1.07650440913807        0.03472171332389        0.00084646384014
C           -3.56403196919228        1.22998195338119        0.00117439060474
S           -4.67667297582864        2.57308174891318        0.00114234406027
C           -6.03913273030215        1.52881651267845        0.00182061537234
C           -5.68233361125324        0.20651306597325        0.00198485532967
C           -6.40353304165840       -1.02937651194474        0.00231626949251
C           -5.61785451616640       -2.12269165919716        0.00252062488183
Se          -3.76414901856601       -1.75663565321470        0.00167937509850
C           -4.26277050878630        0.04181223413919        0.00161700735737
C            1.96266174679747       -0.64997042757985        0.00012075191988
N            1.11864026129538       -1.69598903110904        0.00031379430016
C            1.67639155392393       -2.87642080736561        0.00030939900195
C            3.08334615153453       -3.05828012952872        0.00011415402056
N            3.92835116280866       -2.06399610757514       -0.00007403775828
C            3.38330845728266       -0.83176194163618       -0.00007493619731
H            8.89841607749117       -0.10438688357640       -0.00071620181994
H            5.84017321757778        2.67570606587782       -0.00051201726334
H            0.37957817404400        3.33631915517418       -0.00002899483543
H           -7.02593763462182        1.94727134921971        0.00191984481913
H           -7.47929426818123       -1.06677154635982        0.00261768798805
H           -5.95551872301945       -3.14450685615099        0.00291519218197
H            1.00783067117521       -3.72570637214208        0.00046981216980
H            3.50997524795623       -4.05162036607375        0.00012125775529

          :  Hamiltonian                  GFN2-xTB          :
         :: total energy             -70.454211895751 Eh    ::
         :: gradient norm              0.000175457367 Eh/a0 ::
         :: HOMO-LUMO gap              1.044167127509 eV    ::
         :: SCC energy               -71.407302211694 Eh    ::
         :: -> dispersion             -0.058069313989 Eh    ::
         :: repulsion energy           0.953728952104 Eh    ::

    * Orbital Energies and Occupations

         #    Occupation            Energy/Eh            Energy/eV
      -------------------------------------------------------------
         1        2.0000           -0.7613901             -20.7185
       ...           ...                  ...                  ...
        53        2.0000           -0.4475200             -12.1776
        54        2.0000           -0.4366313             -11.8813
        55        2.0000           -0.4342708             -11.8171
        56        2.0000           -0.4288219             -11.6688
        57        2.0000           -0.4255682             -11.5803
        58        2.0000           -0.4150262             -11.2934
        59        2.0000           -0.4072534             -11.0819
        60        2.0000           -0.4014417             -10.9238
        61        2.0000           -0.3998226             -10.8797
        62        2.0000           -0.3974070             -10.8140
        63        2.0000           -0.3829105             -10.4195
        64        2.0000           -0.3690770             -10.0431
        65        2.0000           -0.3641303              -9.9085 (HOMO)
        66                         -0.3257578              -8.8643 (LUMO)
        67                         -0.2926008              -7.9621
        68                         -0.2720133              -7.4019
        69                         -0.2607262              -7.0947
        70                         -0.2422452              -6.5918
        71                         -0.2400063              -6.5309
        72                         -0.2302746              -6.2661
        73                         -0.2279852              -6.2038
        74                         -0.2168088              -5.8997
        75                         -0.2081062              -5.6629
        76                         -0.2047367              -5.5712
       ...                                ...                  ...
       141                          0.8401033              22.8604
      -------------------------------------------------------------
                  HL-Gap            0.0383724 Eh            1.0442 eV

     #   Z          covCN         q      C6AA      α(0)
     1   6 C        2.998     0.067    26.482     8.442
     2   7 N        1.949    -0.207    26.304     7.605
     3   6 C        3.180     0.026    27.002     8.483
     4   6 C        3.006     0.015    27.672     8.629
     5  16 S        2.281     0.001   141.016    19.987
     6   6 C        3.009     0.000    28.005     8.681
     7  16 S        2.333     0.010   140.661    19.961
     8   6 C        3.014     0.003    27.929     8.669
     9   6 C        3.001     0.015    27.659     8.627
    10   6 C        3.155     0.036    26.894     8.480
    11   7 N        1.937    -0.229    26.832     7.681
    12   6 C        3.070     0.105    25.615     8.299
    13  16 S        2.367    -0.023   141.999    20.056
    14   6 C        3.020     0.001    27.978     8.676
    15  16 S        2.324     0.040   139.435    19.874
    16   6 C        2.932    -0.030    28.743     8.792
    17   6 C        3.290    -0.001    26.445     8.255
    18   6 C        3.025    -0.038    28.912     8.820
    19   6 C        2.922    -0.023    28.587     8.768
    20  34 Se       2.259    -0.025   236.571    26.801
    21   6 C        3.179    -0.000    27.609     8.578
    22   6 C        3.169     0.066    26.162     8.357
    23   7 N        1.847    -0.205    26.296     7.600
    24   6 C        2.918     0.057    26.732     8.478
    25   6 C        2.917     0.058    26.697     8.473
    26   7 N        1.838    -0.210    26.396     7.614
    27   6 C        3.162     0.066    26.206     8.368
    28   1 H        0.926     0.060     2.201     2.320
    29   1 H        0.926     0.051     2.303     2.373
    30   1 H        0.926     0.052     2.296     2.369
    31   1 H        0.926     0.061     2.183     2.310
    32   1 H        0.926     0.048     2.340     2.392
    33   1 H        0.926     0.057     2.232     2.336
    34   1 H        0.926     0.047     2.361     2.403
    35   1 H        0.926     0.047     2.362     2.403

Wiberg/Mayer (AO) data.
largest (>0.10) Wiberg bond orders for each atom

     #   Z sym  total        # sym  WBO       # sym  WBO       # sym  WBO
 ---------------------------------------------------------------------------
     1   6 C    3.919 --     2 N    1.619     5 S    1.187    28 H    0.964
     2   7 N    3.130 --     1 C    1.619     3 C    1.304     5 S    0.156
     3   6 C    3.936 --     4 C    1.464     2 N    1.304    29 H    0.958
     4   6 C    3.955 --     3 C    1.464     6 C    1.193     5 S    1.139
     5  16 S    2.673 --     1 C    1.187     4 C    1.139     2 N    0.156
     6   6 C    3.913 --    27 C    1.325     4 C    1.193     7 S    1.149
     7  16 S    2.649 --     8 C    1.155     6 C    1.149
     8   6 C    3.932 --    22 C    1.308     9 C    1.214     7 S    1.155
     9   6 C    3.938 --    10 C    1.422     8 C    1.214    13 S    1.115
    10   6 C    3.941 --     9 C    1.422    11 N    1.355    30 H    0.958
    11   7 N    3.121 --    12 C    1.480    10 C    1.355    13 S    0.131
    12   6 C    3.930 --    11 N    1.480    14 C    1.195    13 S    1.092
    13  16 S    2.658 --     9 C    1.115    12 C    1.092    11 N    0.131
    14   6 C    3.947 --    21 C    1.419    12 C    1.195    15 S    1.112
    15  16 S    2.661 --    16 C    1.232    14 C    1.112
    16   6 C    3.914 --    17 C    1.484    15 S    1.232    31 H    0.966
    17   6 C    3.983 --    16 C    1.484    21 C    1.191    18 C    1.154
    18   6 C    3.985 --    19 C    1.721    17 C    1.154    32 H    0.959
                            20 Se   0.108
    19   6 C    3.966 --    18 C    1.721    20 Se   1.139    33 H    0.956
    20  34 Se   2.656 --    19 C    1.139    21 C    1.125    18 C    0.108
    21   6 C    3.948 --    14 C    1.419    17 C    1.191    20 Se   1.125
    22   6 C    3.972 --     8 C    1.308    23 N    1.285    27 C    1.151
    23   7 N    3.100 --    24 C    1.559    22 C    1.285
    24   6 C    3.951 --    23 N    1.559    25 C    1.255    34 H    0.962
    25   6 C    3.960 --    26 N    1.568    24 C    1.255    35 H    0.962
    26   7 N    3.080 --    25 C    1.568    27 C    1.273
    27   6 C    3.980 --     6 C    1.325    26 N    1.273    22 C    1.151
    28   1 H    0.996 --     1 C    0.964
    29   1 H    0.997 --     3 C    0.958
    30   1 H    0.996 --    10 C    0.958
    31   1 H    0.996 --    16 C    0.966
    32   1 H    0.997 --    18 C    0.959
    33   1 H    0.996 --    19 C    0.956
    34   1 H    0.996 --    24 C    0.962
    35   1 H    0.996 --    25 C    0.962
 ---------------------------------------------------------------------------

molecular dipole:
                 x           y           z       tot (Debye)
 q only:       -1.192      -0.368       0.000
   full:       -1.265      -0.986       0.000       4.077

           -------------------------------------------------
          | TOTAL ENERGY              -70.454211895751 Eh   |
          | GRADIENT NORM               0.000175457367 Eh/α |
          | HOMO-LUMO GAP               1.044167127509 eV   |
           -------------------------------------------------

 * finished run on 2024/06/14 at 02:57:51.657
