   * xtb version 6.7.1 (edcfbbe) compiled by 'albert@albert-system' on 2024-07-22

   ID    Z sym.   atoms
    1    8 O      1
    2    6 C      2-4, 6
    3    7 N      5, 7
    4    1 H      8, 9

          program call               : xtb crest_best.xyz --gfn 2 --alpb toluene --opt vtight -c 0 --iterations 40
      * Solvation model:               ALPB
        Solvent                        toluene
        Solvent mass                       7.8110E+01 g/mol
          :  Hamiltonian                  GFN2-xTB          :
 * total energy  :   -19.3762912 Eh     change       -0.5597656E-10 Eh
 * total energy  :   -19.3805066 Eh     change       -0.4215374E-02 Eh
 * total energy  :   -19.3812807 Eh     change       -0.7741352E-03 Eh
 * total energy  :   -19.3814221 Eh     change       -0.1414415E-03 Eh
 * total energy  :   -19.3815704 Eh     change       -0.1482281E-03 Eh
 * total energy  :   -19.3816460 Eh     change       -0.7567928E-04 Eh
 * total energy  :   -19.3817525 Eh     change       -0.1064442E-03 Eh
 * total energy  :   -19.3818167 Eh     change       -0.6423163E-04 Eh
 * total energy  :   -19.3819403 Eh     change       -0.1235511E-03 Eh
 * total energy  :   -19.3820523 Eh     change       -0.1120313E-03 Eh
 * total energy  :   -19.3824960 Eh     change       -0.1867789E-05 Eh
 * total energy  :   -19.3824970 Eh     change       -0.9177507E-06 Eh
 * total energy  :   -19.3824983 Eh     change       -0.1335906E-05 Eh
 * total energy  :   -19.3824993 Eh     change       -0.9662338E-06 Eh
 * total energy  :   -19.3825000 Eh     change       -0.7113220E-06 Eh
 * total energy  :   -19.3825015 Eh     change       -0.1523706E-05 Eh
 * total energy  :   -19.3825022 Eh     change       -0.7034272E-06 Eh
 * total energy  :   -19.3825024 Eh     change       -0.1877882E-06 Eh
 * total energy  :   -19.3825025 Eh     change       -0.8340918E-07 Eh
   *** GEOMETRY OPTIMIZATION CONVERGED AFTER 34 ITERATIONS ***

 final structure:
================
9
 xtb: 6.7.1 (edcfbbe)
O           -1.82223904311932        1.60740776175557        0.24427841440002
C           -0.97972133951856        0.96794451678390       -0.30203130445790
C            0.02136875935191        0.07607217080002        0.45131501620154
C            1.37035566673983        0.52760771033184        0.16892150828548
N            2.42701906931434        0.89315325676014       -0.05787512986213
C           -0.12921183341879       -1.29500913410023        0.00312359731595
N           -0.25641435304271       -2.37096676853258       -0.35428341071524
H           -0.83788777329207        0.95409228474293       -1.39516256707248
H           -0.16753151271465        0.13282557835840        1.53301637130479

          :  Hamiltonian                  GFN2-xTB          :
         :: total energy             -19.382502475313 Eh    ::
         :: gradient norm              0.000084410821 Eh/a0 ::
         :: HOMO-LUMO gap              3.675420741210 eV    ::
         :: SCC energy               -19.723487032365 Eh    ::
         :: -> dispersion             -0.005773778329 Eh    ::
         :: -> Gsolv                  -0.011157867737 Eh    ::
         :: repulsion energy           0.340984557052 Eh    ::

    * Orbital Energies and Occupations

         #    Occupation            Energy/Eh            Energy/eV
      -------------------------------------------------------------
         1        2.0000           -0.7763734             -21.1262
       ...           ...                  ...                  ...
         5        2.0000           -0.6592644             -17.9395
         6        2.0000           -0.6279430             -17.0872
         7        2.0000           -0.6247364             -16.9999
         8        2.0000           -0.5944370             -16.1755
         9        2.0000           -0.5809732             -15.8091
        10        2.0000           -0.5688691             -15.4797
        11        2.0000           -0.5289347             -14.3930
        12        2.0000           -0.5269320             -14.3386
        13        2.0000           -0.5210882             -14.1795
        14        2.0000           -0.5133365             -13.9686
        15        2.0000           -0.4740174             -12.8987
        16        2.0000           -0.4671134             -12.7108
        17        2.0000           -0.4563388             -12.4176 (HOMO)
        18                         -0.3212695              -8.7422 (LUMO)
        19                         -0.2661595              -7.2426
        20                         -0.2524926              -6.8707
        21                         -0.2454366              -6.6787
        22                         -0.2300370              -6.2596
        23                          0.0335073               0.9118
        24                          0.0745098               2.0275
        25                          0.1179014               3.2083
        26                          0.1380847               3.7575
        27                          0.1880952               5.1183
        28                          0.5840877              15.8938
       ...                                ...                  ...
        30                          1.1255122              30.6267
      -------------------------------------------------------------
                  HL-Gap            0.1350692 Eh            3.6754 eV

     #   Z          covCN         q      C6AA      α(0)
     1   8 O        0.856    -0.279    19.405     5.906
     2   6 C        2.772     0.235    23.082     7.869
     3   6 C        3.856    -0.013    20.773     6.482
     4   6 C        1.925     0.133    27.853     8.523
     5   7 N        0.911    -0.195    25.230     7.265
     6   6 C        1.925     0.133    27.852     8.523
     7   7 N        0.911    -0.195    25.230     7.265
     8   1 H        0.923     0.056     2.243     2.342
     9   1 H        0.923     0.125     1.573     1.961

Wiberg/Mayer (AO) data.
largest (>0.10) Wiberg bond orders for each atom

     #   Z sym  total        # sym  WBO       # sym  WBO       # sym  WBO
 ---------------------------------------------------------------------------
     1   8 O    2.153 --     2 C    1.972
     2   6 C    3.912 --     1 O    1.972     8 H    0.933     3 C    0.913
     3   6 C    3.994 --     4 C    0.999     6 C    0.999     2 C    0.913
                             9 H    0.905
     4   6 C    3.950 --     5 N    2.863     3 C    0.999
     5   7 N    3.038 --     4 C    2.863
     6   6 C    3.950 --     7 N    2.863     3 C    0.999
     7   7 N    3.038 --     6 C    2.863
     8   1 H    0.997 --     2 C    0.933
     9   1 H    0.984 --     3 C    0.905
 ---------------------------------------------------------------------------

molecular dipole:
                 x           y           z       tot (Debye)
 q only:       -0.092       0.065       0.135
   full:       -0.358       0.271       0.283       1.349

           -------------------------------------------------
          | TOTAL ENERGY              -19.382502475313 Eh   |
          | GRADIENT NORM               0.000084410821 Eh/α |
          | HOMO-LUMO GAP               3.675420741210 eV   |
           -------------------------------------------------

 * finished run on 2024/08/07 at 21:29:46.861
