   * xtb version 6.7.0 (08769fc) compiled by 'albert@albert-system' on 2024-03-04

   ID    Z sym.   atoms
    1    6 C      1-3
    2    8 O      4
    3    1 H      5-10

          program call               : /home/mvotokps/xtb-dist/bin/xtb crest_best.xyz --gfn 2 --alpb toluene --opt vtight -c 0 --iterations 4000
      * Solvation model:               ALPB
        Solvent                        toluene
        Solvent mass                       7.8110E+01 g/mol
          :  Hamiltonian                  GFN2-xTB          :
 * total energy  :   -13.5390153 Eh     change       -0.1905729E-09 Eh
 * total energy  :   -13.5402588 Eh     change       -0.1243447E-02 Eh
 * total energy  :   -13.5405128 Eh     change       -0.2540611E-03 Eh
 * total energy  :   -13.5406627 Eh     change       -0.1498919E-03 Eh
 * total energy  :   -13.5407689 Eh     change       -0.1061514E-03 Eh
 * total energy  :   -13.5408796 Eh     change       -0.1107452E-03 Eh
 * total energy  :   -13.5409907 Eh     change       -0.1110658E-03 Eh
 * total energy  :   -13.5410874 Eh     change       -0.9672046E-04 Eh
 * total energy  :   -13.5411844 Eh     change       -0.9704332E-04 Eh
 * total energy  :   -13.5412481 Eh     change       -0.6364234E-04 Eh
 * total energy  :   -13.5413453 Eh     change       -0.2265719E-06 Eh
 * total energy  :   -13.5413454 Eh     change       -0.1397339E-06 Eh
 * total energy  :   -13.5413458 Eh     change       -0.3653075E-06 Eh
 * total energy  :   -13.5413460 Eh     change       -0.1741290E-06 Eh
 * total energy  :   -13.5413461 Eh     change       -0.1039124E-06 Eh
 * total energy  :   -13.5413463 Eh     change       -0.2485785E-06 Eh
 * total energy  :   -13.5413465 Eh     change       -0.2145553E-06 Eh
 * total energy  :   -13.5413466 Eh     change       -0.1096588E-06 Eh
 * total energy  :   -13.5413467 Eh     change       -0.1685398E-07 Eh
   *** GEOMETRY OPTIMIZATION CONVERGED AFTER 27 ITERATIONS ***

 final structure:
================
10
 xtb: 6.7.0 (08769fc)
C           -1.26563407524331        0.67642684006196        0.08670882585177
C           -0.00033964814151       -0.13665671548586       -0.01409077024605
C            1.26390400533378        0.68160922804362       -0.08006232396261
O            0.00043212706120       -1.34454036917902       -0.03987149520385
H           -2.10909184928507        0.03676371133430        0.33380967380296
H           -1.45406392348619        1.15082028008073       -0.87532048836093
H           -1.15745151505330        1.45891476820543        0.83341440515556
H            1.45211994484703        1.11420738923987        0.90152027364966
H            1.15449168442414        1.49546013067629       -0.79226487133126
H            2.10806169544324        0.05425584772268       -0.35479736395527

          :  Hamiltonian                  GFN2-xTB          :
         :: total energy             -13.541346661560 Eh    ::
         :: gradient norm              0.000018489329 Eh/a0 ::
         :: HOMO-LUMO gap              4.084768242896 eV    ::
         :: SCC energy               -13.712772663021 Eh    ::
         :: -> dispersion             -0.003899974173 Eh    ::
         :: -> Gsolv                  -0.007491491488 Eh    ::
         :: repulsion energy           0.171426001461 Eh    ::

    * Orbital Energies and Occupations

         #    Occupation            Energy/Eh            Energy/eV
      -------------------------------------------------------------
         1        2.0000           -0.7132176             -19.4076
         2        2.0000           -0.6415223             -17.4567
         3        2.0000           -0.6193187             -16.8525
         4        2.0000           -0.5721832             -15.5699
         5        2.0000           -0.5469384             -14.8830
         6        2.0000           -0.5379525             -14.6384
         7        2.0000           -0.5223404             -14.2136
         8        2.0000           -0.4821753             -13.1207
         9        2.0000           -0.4769054             -12.9773
        10        2.0000           -0.4757109             -12.9448
        11        2.0000           -0.4695740             -12.7778
        12        2.0000           -0.4008979             -10.9090 (HOMO)
        13                         -0.2507855              -6.8242 (LUMO)
        14                          0.0869329               2.3656
        15                          0.1458660               3.9692
        16                          0.1664574               4.5295
        17                          0.1796193               4.8877
        18                          0.1926728               5.2429
        19                          0.2061904               5.6107
        20                          0.2160136               5.8780
        21                          0.2724568               7.4139
        22                          0.6206349              16.8883
      -------------------------------------------------------------
                  HL-Gap            0.1501125 Eh            4.0848 eV

     #   Z          covCN         q      C6AA      α(0)
     1   6 C        3.754    -0.142    23.301     6.883
     2   6 C        2.808     0.248    22.841     7.830
     3   6 C        3.754    -0.142    23.301     6.883
     4   8 O        0.857    -0.385    21.390     6.201
     5   1 H        0.925     0.065     2.139     2.287
     6   1 H        0.925     0.075     2.027     2.227
     7   1 H        0.925     0.070     2.083     2.257
     8   1 H        0.925     0.075     2.027     2.226
     9   1 H        0.925     0.070     2.083     2.257
    10   1 H        0.925     0.065     2.139     2.287

Wiberg/Mayer (AO) data.
largest (>0.10) Wiberg bond orders for each atom

     #   Z sym  total        # sym  WBO       # sym  WBO       # sym  WBO
 ---------------------------------------------------------------------------
     1   6 C    3.994 --     2 C    1.007     5 H    0.983     7 H    0.968
                             6 H    0.954
     2   6 C    3.912 --     4 O    1.851     1 C    1.007     3 C    1.007
     3   6 C    3.994 --     2 C    1.007    10 H    0.983     9 H    0.968
                             8 H    0.954
     4   8 O    2.054 --     2 C    1.851
     5   1 H    0.996 --     1 C    0.983
     6   1 H    0.994 --     1 C    0.954
     7   1 H    0.995 --     1 C    0.968
     8   1 H    0.994 --     3 C    0.954
     9   1 H    0.995 --     3 C    0.968
    10   1 H    0.996 --     3 C    0.983
 ---------------------------------------------------------------------------

molecular dipole:
                 x           y           z       tot (Debye)
 q only:       -0.001       1.276       0.027
   full:       -0.001       1.458       0.031       3.706

           -------------------------------------------------
          | TOTAL ENERGY              -13.541346661560 Eh   |
          | GRADIENT NORM               0.000018489329 Eh/α |
          | HOMO-LUMO GAP               4.084768242896 eV   |
           -------------------------------------------------

 * finished run on 2024/08/07 at 19:38:47.610
