   * xtb version 6.7.0 (08769fc) compiled by 'albert@albert-system' on 2024-03-04

   ID    Z sym.   atoms
    1    8 O      1
    2    6 C      2, 3, 5, 6
    3    7 N      4, 7
    4    1 H      8-13

          program call               : /home/mvotokps/xtb-dist/bin/xtb crest_best.xyz --gfn 2 --alpb toluene --opt vtight -c 0 --iterations 4000
      * Solvation model:               ALPB
        Solvent                        toluene
        Solvent mass                       7.8110E+01 g/mol
          :  Hamiltonian                  GFN2-xTB          :
 * total energy  :   -21.4540717 Eh     change       -0.6059153E-10 Eh
 * total energy  :   -21.4565555 Eh     change       -0.2483825E-02 Eh
 * total energy  :   -21.4571978 Eh     change       -0.6422628E-03 Eh
 * total energy  :   -21.4573339 Eh     change       -0.1361376E-03 Eh
 * total energy  :   -21.4575549 Eh     change       -0.2210309E-03 Eh
 * total energy  :   -21.4576351 Eh     change       -0.8017609E-04 Eh
 * total energy  :   -21.4576921 Eh     change       -0.5702653E-04 Eh
 * total energy  :   -21.4577100 Eh     change       -0.1782746E-04 Eh
 * total energy  :   -21.4577179 Eh     change       -0.7978127E-05 Eh
 * total energy  :   -21.4577224 Eh     change       -0.4501712E-05 Eh
 * total energy  :   -21.4577271 Eh     change       -0.4677578E-05 Eh
 * total energy  :   -21.4577299 Eh     change       -0.2774883E-05 Eh
 * total energy  :   -21.4577315 Eh     change       -0.1630797E-05 Eh
 * total energy  :   -21.4577322 Eh     change       -0.6632408E-06 Eh
 * total energy  :   -21.4577325 Eh     change       -0.3066551E-06 Eh
 * total energy  :   -21.4577326 Eh     change       -0.1214649E-06 Eh
 * total energy  :   -21.4577327 Eh     change       -0.4878168E-07 Eh
   *** GEOMETRY OPTIMIZATION CONVERGED AFTER 17 ITERATIONS ***

 final structure:
================
13
 xtb: 6.7.0 (08769fc)
O           -0.14961641129864        1.55589883482256       -0.30543205775911
C           -0.40307817495728        0.44082714075773        0.50646851223808
C           -1.63608556718838       -0.23806907196222        0.11229441785996
N           -2.58730471850622       -0.77732883179852       -0.22198890886041
C            0.73660447901570       -0.58109899027115        0.44536441407038
C            2.13772206269200       -0.11129030695887        0.37791613069773
N            1.45158867930272       -0.58030227431870       -0.80813633196667
H            0.28855987563389        1.22810587721789       -1.10762959129180
H           -0.53287115413578        0.80914632174830        1.53488187018753
H            0.51429035299175       -1.51824187206884        0.94869064218383
H            2.91190257461137       -0.71986461763659        0.82908711821942
H            2.32864120667457        0.95375804993494        0.39487829334978
H            1.73766380126430       -1.49134089726653       -1.14806111672872

          :  Hamiltonian                  GFN2-xTB          :
         :: total energy             -21.457732663311 Eh    ::
         :: gradient norm              0.000035430618 Eh/a0 ::
         :: HOMO-LUMO gap              4.727357650983 eV    ::
         :: SCC energy               -21.746289455195 Eh    ::
         :: -> dispersion             -0.007897729822 Eh    ::
         :: -> Gsolv                  -0.010707858042 Eh    ::
         :: repulsion energy           0.288556791884 Eh    ::

    * Orbital Energies and Occupations

         #    Occupation            Energy/Eh            Energy/eV
      -------------------------------------------------------------
         1        2.0000           -0.7128220             -19.3969
       ...           ...                  ...                  ...
         7        2.0000           -0.5870935             -15.9756
         8        2.0000           -0.5812014             -15.8153
         9        2.0000           -0.5554044             -15.1133
        10        2.0000           -0.5459706             -14.8566
        11        2.0000           -0.5126938             -13.9511
        12        2.0000           -0.4992441             -13.5851
        13        2.0000           -0.4935390             -13.4299
        14        2.0000           -0.4854968             -13.2110
        15        2.0000           -0.4683393             -12.7442
        16        2.0000           -0.4670768             -12.7098
        17        2.0000           -0.4589558             -12.4888
        18        2.0000           -0.4269803             -11.6187
        19        2.0000           -0.4033662             -10.9762 (HOMO)
        20                         -0.2296390              -6.2488 (LUMO)
        21                         -0.2226896              -6.0597
        22                         -0.0932966              -2.5387
        23                          0.0197016               0.5361
        24                          0.0574011               1.5620
        25                          0.0773675               2.1053
        26                          0.0986579               2.6846
        27                          0.1099527               2.9920
        28                          0.1527761               4.1572
        29                          0.1565883               4.2610
        30                          0.2009819               5.4690
       ...                                ...                  ...
        34                          1.1099654              30.2037
      -------------------------------------------------------------
                  HL-Gap            0.1737272 Eh            4.7274 eV

     #   Z          covCN         q      C6AA      α(0)
     1   8 O        1.656    -0.431    21.459     6.253
     2   6 C        3.729     0.120    18.709     6.175
     3   6 C        1.903     0.105    28.498     8.622
     4   7 N        0.911    -0.224    25.886     7.359
     5   6 C        3.798     0.042    19.880     6.349
     6   6 C        3.737     0.005    20.577     6.473
     7   7 N        2.677    -0.277    27.154     7.739
     8   1 H        0.804     0.321     0.662     1.278
     9   1 H        0.923     0.072     2.066     2.248
    10   1 H        0.925     0.025     2.665     2.553
    11   1 H        0.925     0.034     2.527     2.486
    12   1 H        0.925     0.062     2.175     2.306
    13   1 H        0.860     0.146     1.429     1.872

Wiberg/Mayer (AO) data.
largest (>0.10) Wiberg bond orders for each atom

     #   Z sym  total        # sym  WBO       # sym  WBO       # sym  WBO
 ---------------------------------------------------------------------------
     1   8 O    1.976 --     2 C    1.002     8 H    0.869
     2   6 C    3.967 --     3 C    1.002     1 O    1.002     5 C    0.950
                             9 H    0.932
     3   6 C    3.937 --     4 N    2.869     2 C    1.002
     4   7 N    3.012 --     3 C    2.869
     5   6 C    3.937 --     7 N    0.981     6 C    0.977    10 H    0.967
                             2 C    0.950
     6   6 C    3.931 --     5 C    0.977     7 N    0.976    11 H    0.976
                            12 H    0.973
     7   7 N    2.996 --     5 C    0.981     6 C    0.976    13 H    0.959
     8   1 H    0.897 --     1 O    0.869
     9   1 H    0.995 --     2 C    0.932
    10   1 H    0.999 --     5 C    0.967
    11   1 H    0.998 --     6 C    0.976
    12   1 H    0.996 --     6 C    0.973
    13   1 H    0.979 --     7 N    0.959
 ---------------------------------------------------------------------------

molecular dipole:
                 x           y           z       tot (Debye)
 q only:        1.183      -0.191       0.305
   full:        1.719      -0.496       0.538       4.748

           -------------------------------------------------
          | TOTAL ENERGY              -21.457732663311 Eh   |
          | GRADIENT NORM               0.000035430618 Eh/α |
          | HOMO-LUMO GAP               4.727357650983 eV   |
           -------------------------------------------------

 * finished run on 2024/08/07 at 20:37:11.777
