   * xtb version 6.7.1 (edcfbbe) compiled by 'albert@albert-system' on 2024-07-22

   ID    Z sym.   atoms
    1    6 C      1, 4, 5
    2    7 N      2, 3, 6
    3    1 H      7-11

          program call               : xtb crest_best.xyz --gfn 2 --alpb toluene --opt vtight -c 0 --iterations 40
      * Solvation model:               ALPB
        Solvent                        toluene
        Solvent mass                       7.8110E+01 g/mol
          :  Hamiltonian                  GFN2-xTB          :
 * total energy  :   -17.7222148 Eh     change       -0.1037392E-10 Eh
 * total energy  :   -17.7256416 Eh     change       -0.3426801E-02 Eh
 * total energy  :   -17.7261592 Eh     change       -0.5176390E-03 Eh
 * total energy  :   -17.7262414 Eh     change       -0.8216521E-04 Eh
 * total energy  :   -17.7262741 Eh     change       -0.3271263E-04 Eh
 * total energy  :   -17.7262755 Eh     change       -0.1410868E-05 Eh
 * total energy  :   -17.7262757 Eh     change       -0.2019956E-06 Eh
 * total energy  :   -17.7262757 Eh     change       -0.4555332E-07 Eh
   *** GEOMETRY OPTIMIZATION CONVERGED AFTER 8 ITERATIONS ***

 final structure:
================
11
 xtb: 6.7.1 (edcfbbe)
C            2.03393234136299       -0.00063969976414        0.00605053771904
N            0.60171019547103       -0.00099033439325       -0.00868618532452
N           -0.10437446637356       -1.10484678422844       -0.00327638828218
C           -1.36732181535671       -0.69782151669964        0.00355399854117
C           -1.36656134288344        0.69831476317840        0.00279733333448
N           -0.10302975107534        1.10368091241608       -0.00451010132530
H            2.39271930123159       -0.84552751146433       -0.57888455186311
H            2.40266578713427       -0.09213567559484        1.02988902344753
H            2.38178699847564        0.93788394959194       -0.42016165363731
H           -2.18310160252283       -1.39019552143530        0.00539537041792
H           -2.18154768126364        1.39158706209350        0.00386843977229

          :  Hamiltonian                  GFN2-xTB          :
         :: total energy             -17.726275746083 Eh    ::
         :: gradient norm              0.000051983601 Eh/a0 ::
         :: HOMO-LUMO gap              4.478762904837 eV    ::
         :: SCC energy               -17.949192007871 Eh    ::
         :: -> dispersion             -0.006509505382 Eh    ::
         :: -> Gsolv                  -0.009112318141 Eh    ::
         :: repulsion energy           0.222916261788 Eh    ::

    * Orbital Energies and Occupations

         #    Occupation            Energy/Eh            Energy/eV
      -------------------------------------------------------------
         1        2.0000           -0.7171256             -19.5140
       ...           ...                  ...                  ...
         4        2.0000           -0.6175628             -16.8047
         5        2.0000           -0.5993955             -16.3104
         6        2.0000           -0.5788100             -15.7502
         7        2.0000           -0.5685613             -15.4713
         8        2.0000           -0.5388258             -14.6622
         9        2.0000           -0.5064305             -13.7807
        10        2.0000           -0.4989616             -13.5774
        11        2.0000           -0.4914789             -13.3738
        12        2.0000           -0.4794452             -13.0464
        13        2.0000           -0.4384713             -11.9314
        14        2.0000           -0.4181377             -11.3781
        15        2.0000           -0.4116042             -11.2003
        16        2.0000           -0.4028270             -10.9615 (HOMO)
        17                         -0.2382354              -6.4827 (LUMO)
        18                         -0.1785152              -4.8576
        19                          0.0025142               0.0684
        20                          0.1056916               2.8760
        21                          0.1378742               3.7517
        22                          0.1541907               4.1957
        23                          0.1694266               4.6103
        24                          0.1982649               5.3951
        25                          0.2411686               6.5625
        26                          0.2618532               7.1254
        27                          0.3350447               9.1170
       ...                                ...                  ...
        29                          0.5958694              16.2144
      -------------------------------------------------------------
                  HL-Gap            0.1645915 Eh            4.4788 eV

     #   Z          covCN         q      C6AA      α(0)
     1   6 C        3.693    -0.079    22.198     6.741
     2   7 N        3.268     0.204    17.866     6.278
     3   7 N        2.009    -0.239    27.032     7.711
     4   6 C        3.092     0.016    27.543     8.602
     5   6 C        3.092     0.016    27.548     8.603
     6   7 N        2.010    -0.239    27.026     7.710
     7   1 H        0.925     0.089     1.884     2.147
     8   1 H        0.924     0.082     1.960     2.189
     9   1 H        0.925     0.091     1.866     2.136
    10   1 H        0.927     0.029     2.604     2.523
    11   1 H        0.927     0.029     2.603     2.523

Wiberg/Mayer (AO) data.
largest (>0.10) Wiberg bond orders for each atom

     #   Z sym  total        # sym  WBO       # sym  WBO       # sym  WBO
 ---------------------------------------------------------------------------
     1   6 C    3.957 --     2 N    0.996     9 H    0.975     7 H    0.974
                             8 H    0.965
     2   7 N    3.741 --     6 N    1.274     3 N    1.274     1 C    0.996
     3   7 N    2.997 --     4 C    1.466     2 N    1.274     6 N    0.187
     4   6 C    3.977 --     3 N    1.466     5 C    1.405    10 H    0.971
     5   6 C    3.977 --     6 N    1.465     4 C    1.405    11 H    0.971
     6   7 N    2.997 --     5 C    1.465     2 N    1.274     3 N    0.187
     7   1 H    0.992 --     1 C    0.974
     8   1 H    0.993 --     1 C    0.965
     9   1 H    0.992 --     1 C    0.975
    10   1 H    0.999 --     4 C    0.971
    11   1 H    0.999 --     5 C    0.971
 ---------------------------------------------------------------------------

molecular dipole:
                 x           y           z       tot (Debye)
 q only:        0.889       0.005      -0.011
   full:        0.525       0.003       0.002       1.334

           -------------------------------------------------
          | TOTAL ENERGY              -17.726275746083 Eh   |
          | GRADIENT NORM               0.000051983601 Eh/α |
          | HOMO-LUMO GAP               4.478762904837 eV   |
           -------------------------------------------------

 * finished run on 2024/08/07 at 20:45:14.310
