   * xtb version 6.5.1 (fef0646) compiled by 'conda@b96dff2e9fd6' on 2023-01-04
          program call               : xtb crest_best.xyz --opt normal -c 0 --iterations 4000

   ID    Z sym.   atoms
    1    6 C      1-4, 6-8, 10, 11, 13-17, 19-23
    2   16 S      5, 12
    3   34 Se     9
    4    8 O      18
    5    1 H      24-33

          :  Hamiltonian                  GFN2-xTB          :
 * total energy  :   -59.3189413 Eh     change       -0.1010015E-08 Eh
 * total energy  :   -59.3385815 Eh     change       -0.1964026E-01 Eh
 * total energy  :   -59.3455373 Eh     change       -0.6955775E-02 Eh
 * total energy  :   -59.3469823 Eh     change       -0.1444961E-02 Eh
 * total energy  :   -59.3476325 Eh     change       -0.6502841E-03 Eh
 * total energy  :   -59.3479019 Eh     change       -0.2693209E-03 Eh
 * total energy  :   -59.3480530 Eh     change       -0.1511562E-03 Eh
 * total energy  :   -59.3481286 Eh     change       -0.7556220E-04 Eh
 * total energy  :   -59.3481647 Eh     change       -0.3609872E-04 Eh
 * total energy  :   -59.3481854 Eh     change       -0.2067842E-04 Eh
 * total energy  :   -59.3482061 Eh     change       -0.2074361E-04 Eh
 * total energy  :   -59.3482200 Eh     change       -0.1394261E-04 Eh
 * total energy  :   -59.3482482 Eh     change       -0.2817350E-04 Eh
 * total energy  :   -59.3482680 Eh     change       -0.1978402E-04 Eh
 * total energy  :   -59.3482874 Eh     change       -0.1941571E-04 Eh
 * total energy  :   -59.3483053 Eh     change       -0.1784040E-04 Eh
 * total energy  :   -59.3483148 Eh     change       -0.9521814E-05 Eh
 * total energy  :   -59.3483179 Eh     change       -0.3162325E-05 Eh
   *** GEOMETRY OPTIMIZATION CONVERGED AFTER 18 ITERATIONS ***

 final structure:
================
33
 xtb: 6.5.1 (fef0646)
C           -5.93087790282814       -0.70649410409782       -1.23769728616275
C           -6.57818128799234       -0.24949265214736       -0.13824747958582
C           -5.68988513269549        0.17389154973268        0.87745965901928
C           -4.38325453881851        0.02938300864446        0.53147676791924
S           -4.22086609238372       -0.63328880511572       -1.06263503130510
C           -3.16355708836706        0.38666117292819        1.32155663278187
C           -2.40437803164426        1.52099498358960        0.67822705402995
C           -1.17792128660991        1.08302733709804        0.36986870247461
Se           0.38204016119157        1.77647340709213       -0.44621959303767
C            1.11326304365434        0.04578242447396       -0.16232045418130
C            0.27768757833648       -0.82240055220187        0.47414497113045
S            0.93189715749109       -2.44528863206349        0.78575684297639
C            2.33829077446935       -1.96915557560335       -0.13120140910763
C            3.18179660997985       -2.33185470374421       -1.10084672757904
C            3.44387174009185       -0.89692174491769       -1.53173079241320
C            4.55658138161559       -0.22257249338103       -0.76977362474060
C            5.79535953471988        0.20041935107023       -0.43771798023251
O            5.72189347078721        0.83156158484368        0.76518033410452
C            4.44054335157627        0.80106005506250        1.21558833312453
C            3.68997701504370        0.15616649238144        0.29572801657861
C            2.47249786851154       -0.47304144669968       -0.34614769039944
C           -1.01734561624246       -0.31539595237638        0.78705410271668
C           -2.16111762876692       -0.73361244001895        1.35649809294809
H           -6.34772186469836       -1.08664386124478       -2.14880772677181
H           -7.64869722051473       -0.21205024883840       -0.04620227511630
H           -6.01351053867393        0.56703802353366        1.82502091954216
H           -2.84068041139476        2.48458494004436        0.49666803068858
H            3.60334000133296       -3.25856706196259       -1.43292751056852
H            3.24886066299952       -0.62959128327667       -2.56273619965480
H            6.75977928241000        0.16390371051060       -0.90243522007002
H            4.24637355396026        1.27966478952391        2.15357483870621
H           -3.47994370580103        0.66120924501785        2.33390314225377
H           -2.38302011194006       -1.70464740635842        1.75621275393262

          :  Hamiltonian                  GFN2-xTB          :
         :: total energy             -59.348317945684 Eh    ::
         :: gradient norm              0.000664094436 Eh/a0 ::
         :: HOMO-LUMO gap              2.006956204970 eV    ::
         :: SCC energy               -60.210520087719 Eh    ::
         :: -> dispersion             -0.048196855027 Eh    ::
         :: repulsion energy           0.862204010866 Eh    ::

    * Orbital Energies and Occupations

         #    Occupation            Energy/Eh            Energy/eV
      -------------------------------------------------------------
         1        2.0000           -0.7549848             -20.5442
       ...           ...                  ...                  ...
        43        2.0000           -0.4524538             -12.3119
        44        2.0000           -0.4478740             -12.1873
        45        2.0000           -0.4379405             -11.9170
        46        2.0000           -0.4343492             -11.8192
        47        2.0000           -0.4249481             -11.5634
        48        2.0000           -0.4188109             -11.3964
        49        2.0000           -0.4152516             -11.2996
        50        2.0000           -0.4053386             -11.0298
        51        2.0000           -0.4002047             -10.8901
        52        2.0000           -0.3967245             -10.7954
        53        2.0000           -0.3930228             -10.6947
        54        2.0000           -0.3778734             -10.2825
        55        2.0000           -0.3527958              -9.6001 (HOMO)
        56                         -0.2790415              -7.5931 (LUMO)
        57                         -0.2491228              -6.7790
        58                         -0.2446495              -6.6573
        59                         -0.2392656              -6.5107
        60                         -0.2253727              -6.1327
        61                         -0.2196656              -5.9774
        62                         -0.2033831              -5.5343
        63                         -0.2020692              -5.4986
        64                         -0.1732145              -4.7134
        65                         -0.1673931              -4.5550
        66                         -0.1454526              -3.9580
       ...                                ...                  ...
       117                          0.7594329              20.6652
      -------------------------------------------------------------
                  HL-Gap            0.0737543 Eh            2.0070 eV

     #   Z          covCN         q      C6AA      α(0)
     1   6 C        2.941    -0.021    28.542     8.762
     2   6 C        3.114    -0.045    28.954     8.815
     3   6 C        3.116    -0.055    29.201     8.852
     4   6 C        2.997     0.025    27.431     8.591
     5  16 S        2.326    -0.028   142.191    20.070
     6   6 C        3.972    -0.011    20.707     6.465
     7   6 C        2.975    -0.050    29.240     8.870
     8   6 C        3.062     0.018    27.536     8.605
     9  34 Se       2.136    -0.074   238.221    26.894
    10   6 C        3.069    -0.000    27.966     8.671
    11   6 C        3.087     0.028    27.283     8.562
    12  16 S        2.078    -0.107   145.532    20.304
    13   6 C        3.296     0.038    25.483     8.091
    14   6 C        3.133    -0.055    29.132     8.835
    15   6 C        4.421    -0.003    20.540     6.436
    16   6 C        3.281    -0.037    27.399     8.421
    17   6 C        2.988     0.064    26.548     8.452
    18   8 O        1.742    -0.188    17.130     5.589
    19   6 C        2.982     0.067    26.484     8.442
    20   6 C        3.317    -0.036    26.723     8.236
    21   6 C        4.432     0.023    20.107     6.368
    22   6 C        3.144     0.001    27.741     8.618
    23   6 C        2.976    -0.047    29.149     8.856
    24   1 H        0.926     0.046     2.366     2.406
    25   1 H        0.926     0.040     2.448     2.447
    26   1 H        0.926     0.036     2.503     2.474
    27   1 H        0.926     0.044     2.391     2.418
    28   1 H        0.926     0.044     2.401     2.423
    29   1 H        0.925     0.054     2.270     2.356
    30   1 H        0.926     0.054     2.271     2.357
    31   1 H        0.926     0.055     2.256     2.349
    32   1 H        0.924     0.071     2.074     2.252
    33   1 H        0.926     0.046     2.366     2.405

Wiberg/Mayer (AO) data.
largest (>0.10) Wiberg bond orders for each atom

     #   Z sym  total        # sym  WBO       # sym  WBO       # sym  WBO
 ---------------------------------------------------------------------------
     1   6 C    3.946 --     2 C    1.635     5 S    1.191    24 H    0.970
                             4 C    0.113
     2   6 C    3.986 --     1 C    1.635     3 C    1.264    25 H    0.965
     3   6 C    3.982 --     4 C    1.599     2 C    1.264    26 H    0.965
     4   6 C    3.943 --     3 C    1.599     5 S    1.162     6 C    0.979
                             1 C    0.113
     5  16 S    2.616 --     1 C    1.191     4 C    1.162
     6   6 C    3.995 --    23 C    1.011     7 C    0.994     4 C    0.979
                            32 H    0.920
     7   6 C    3.983 --     8 C    1.737     6 C    0.994    27 H    0.969
                            23 C    0.123
     8   6 C    3.958 --     7 C    1.737     9 Se   1.062    22 C    1.053
     9  34 Se   2.499 --    10 C    1.067     8 C    1.062
    10   6 C    3.951 --    11 C    1.596     9 Se   1.067    21 C    1.031
    11   6 C    3.954 --    10 C    1.596    22 C    1.139    12 S    1.014
    12  16 S    2.407 --    13 C    1.056    11 C    1.014    14 C    0.107
    13   6 C    3.942 --    14 C    1.803    12 S    1.056    21 C    0.945
    14   6 C    3.967 --    13 C    1.803    15 C    0.986    28 H    0.968
                            12 S    0.107
    15   6 C    3.969 --    14 C    0.986    16 C    0.983    29 H    0.954
                            21 C    0.911
    16   6 C    3.970 --    17 C    1.612    20 C    1.212    15 C    0.983
    17   6 C    3.904 --    16 C    1.612    18 O    1.114    30 H    0.964
                            19 C    0.140
    18   8 O    2.431 --    19 C    1.119    17 C    1.114
    19   6 C    3.907 --    20 C    1.601    18 O    1.119    31 H    0.964
                            17 C    0.140
    20   6 C    3.961 --    19 C    1.601    16 C    1.212    21 C    0.953
    21   6 C    3.972 --    10 C    1.031    20 C    0.953    13 C    0.945
                            15 C    0.911
    22   6 C    3.984 --    23 C    1.675    11 C    1.139     8 C    1.053
    23   6 C    3.971 --    22 C    1.675     6 C    1.011    33 H    0.969
                             7 C    0.123
    24   1 H    0.998 --     1 C    0.970
    25   1 H    0.998 --     2 C    0.965
    26   1 H    0.999 --     3 C    0.965
    27   1 H    0.997 --     7 C    0.969
    28   1 H    0.997 --    14 C    0.968
    29   1 H    0.997 --    15 C    0.954
    30   1 H    0.997 --    17 C    0.964
    31   1 H    0.997 --    19 C    0.964
    32   1 H    0.994 --     6 C    0.920
    33   1 H    0.998 --    23 C    0.969
 ---------------------------------------------------------------------------

molecular dipole:
                 x           y           z       tot (Debye)
 q only:       -0.469       0.031      -0.062
   full:       -0.656       0.125       0.069       1.705

           -------------------------------------------------
          | TOTAL ENERGY              -59.348317945684 Eh   |
          | GRADIENT NORM               0.000664094436 Eh/α |
          | HOMO-LUMO GAP               2.006956204970 eV   |
           -------------------------------------------------

 * finished run on 2024/06/14 at 02:59:28.280
