   * xtb version 6.7.0 (08769fc) compiled by 'albert@albert-system' on 2024-03-04

   ID    Z sym.   atoms
    1    6 C      1, 4, 5
    2    7 N      2, 3, 6
    3    1 H      7-11

          program call               : /home/mvotokps/xtb-dist/bin/xtb crest_best.xyz --gfn 2 --alpb toluene --opt vtight -c 0 --iterations 4000
      * Solvation model:               ALPB
        Solvent                        toluene
        Solvent mass                       7.8110E+01 g/mol
          :  Hamiltonian                  GFN2-xTB          :
 * total energy  :   -17.7222168 Eh     change       -0.2025047E-10 Eh
 * total energy  :   -17.7256463 Eh     change       -0.3429510E-02 Eh
 * total energy  :   -17.7261669 Eh     change       -0.5205516E-03 Eh
 * total energy  :   -17.7262494 Eh     change       -0.8249144E-04 Eh
 * total energy  :   -17.7262820 Eh     change       -0.3267282E-04 Eh
 * total energy  :   -17.7262835 Eh     change       -0.1422795E-05 Eh
 * total energy  :   -17.7262836 Eh     change       -0.1454891E-06 Eh
 * total energy  :   -17.7262836 Eh     change       -0.3944170E-07 Eh
   *** GEOMETRY OPTIMIZATION CONVERGED AFTER 8 ITERATIONS ***

 final structure:
================
11
 xtb: 6.7.0 (08769fc)
C            2.03400654439134       -0.00192037083322        0.00342586804517
N            0.60175007569209       -0.00314556000262       -0.00470742489116
N           -0.10570541222000       -1.10618855572143       -0.00135435172779
C           -1.36807659201626       -0.69753021234577        0.00217511968874
C           -1.36582681024980        0.69859919398349        0.00132018972418
N           -0.10169795791042        1.10231062404872       -0.00287755463759
H            2.40315188690345       -0.67624332699676       -0.76866579961479
H            2.40506651078580       -0.33768643820400        0.97333127444620
H            2.36900194134226        1.01488793782906       -0.18744202573572
H           -2.18463649120291       -1.38902671449043        0.00335521464426
H           -2.18003861151555        1.39274115903296        0.00163734645849

          :  Hamiltonian                  GFN2-xTB          :
         :: total energy             -17.726283648634 Eh    ::
         :: gradient norm              0.000059314268 Eh/a0 ::
         :: HOMO-LUMO gap              4.479468581403 eV    ::
         :: SCC energy               -17.949200544864 Eh    ::
         :: -> dispersion             -0.006509411362 Eh    ::
         :: -> Gsolv                  -0.009109606640 Eh    ::
         :: repulsion energy           0.222916896230 Eh    ::

    * Orbital Energies and Occupations

         #    Occupation            Energy/Eh            Energy/eV
      -------------------------------------------------------------
         1        2.0000           -0.7171249             -19.5140
       ...           ...                  ...                  ...
         4        2.0000           -0.6175587             -16.8046
         5        2.0000           -0.5994021             -16.3106
         6        2.0000           -0.5788077             -15.7502
         7        2.0000           -0.5685566             -15.4712
         8        2.0000           -0.5388220             -14.6621
         9        2.0000           -0.5063542             -13.7786
        10        2.0000           -0.4990418             -13.5796
        11        2.0000           -0.4915042             -13.3745
        12        2.0000           -0.4793770             -13.0445
        13        2.0000           -0.4384823             -11.9317
        14        2.0000           -0.4181335             -11.3780
        15        2.0000           -0.4116387             -11.2013
        16        2.0000           -0.4028326             -10.9616 (HOMO)
        17                         -0.2382151              -6.4822 (LUMO)
        18                         -0.1785094              -4.8575
        19                          0.0023737               0.0646
        20                          0.1056565               2.8751
        21                          0.1378503               3.7511
        22                          0.1540207               4.1911
        23                          0.1694849               4.6119
        24                          0.1990719               5.4170
        25                          0.2409308               6.5561
        26                          0.2614638               7.1148
        27                          0.3352296               9.1221
       ...                                ...                  ...
        29                          0.5958714              16.2145
      -------------------------------------------------------------
                  HL-Gap            0.1646174 Eh            4.4795 eV

     #   Z          covCN         q      C6AA      α(0)
     1   6 C        3.693    -0.079    22.200     6.741
     2   7 N        3.268     0.204    17.866     6.278
     3   7 N        2.009    -0.239    27.038     7.712
     4   6 C        3.093     0.016    27.536     8.601
     5   6 C        3.092     0.016    27.555     8.604
     6   7 N        2.010    -0.238    27.019     7.710
     7   1 H        0.925     0.087     1.912     2.162
     8   1 H        0.924     0.083     1.949     2.183
     9   1 H        0.925     0.093     1.850     2.127
    10   1 H        0.927     0.029     2.604     2.523
    11   1 H        0.927     0.029     2.603     2.523

Wiberg/Mayer (AO) data.
largest (>0.10) Wiberg bond orders for each atom

     #   Z sym  total        # sym  WBO       # sym  WBO       # sym  WBO
 ---------------------------------------------------------------------------
     1   6 C    3.957 --     2 N    0.996     9 H    0.977     7 H    0.971
                             8 H    0.966
     2   7 N    3.741 --     6 N    1.274     3 N    1.274     1 C    0.996
     3   7 N    2.997 --     4 C    1.466     2 N    1.274     6 N    0.187
     4   6 C    3.977 --     3 N    1.466     5 C    1.405    10 H    0.971
     5   6 C    3.977 --     6 N    1.465     4 C    1.405    11 H    0.971
     6   7 N    2.997 --     5 C    1.465     2 N    1.274     3 N    0.187
     7   1 H    0.992 --     1 C    0.971
     8   1 H    0.993 --     1 C    0.966
     9   1 H    0.991 --     1 C    0.977
    10   1 H    0.999 --     4 C    0.971
    11   1 H    0.999 --     5 C    0.971
 ---------------------------------------------------------------------------

molecular dipole:
                 x           y           z       tot (Debye)
 q only:        0.889       0.017      -0.006
   full:        0.525       0.010       0.001       1.334

           -------------------------------------------------
          | TOTAL ENERGY              -17.726283648634 Eh   |
          | GRADIENT NORM               0.000059314268 Eh/α |
          | HOMO-LUMO GAP               4.479468581403 eV   |
           -------------------------------------------------

 * finished run on 2024/08/07 at 19:41:54.251
