   * xtb version 6.7.0 (08769fc) compiled by 'albert@albert-system' on 2024-03-04

   ID    Z sym.   atoms
    1    6 C      1-6
    2    8 O      7
    3    1 H      8-15

          program call               : /home/mvotokps/xtb-dist/bin/xtb crest_best.xyz --gfn 2 --alpb toluene --opt vtight -c 0 --iterations 4000
      * Solvation model:               ALPB
        Solvent                        toluene
        Solvent mass                       7.8110E+01 g/mol
          :  Hamiltonian                  GFN2-xTB          :
 * total energy  :   -20.9122324 Eh     change       -0.2636646E-09 Eh
 * total energy  :   -20.9151333 Eh     change       -0.2900928E-02 Eh
 * total energy  :   -20.9155644 Eh     change       -0.4310525E-03 Eh
 * total energy  :   -20.9156143 Eh     change       -0.4996100E-04 Eh
 * total energy  :   -20.9156532 Eh     change       -0.3890381E-04 Eh
 * total energy  :   -20.9156811 Eh     change       -0.2783170E-04 Eh
 * total energy  :   -20.9157503 Eh     change       -0.6926322E-04 Eh
 * total energy  :   -20.9158088 Eh     change       -0.5849681E-04 Eh
 * total energy  :   -20.9159062 Eh     change       -0.9740057E-04 Eh
 * total energy  :   -20.9159843 Eh     change       -0.7804522E-04 Eh
 * total energy  :   -20.9166961 Eh     change       -0.2327746E-05 Eh
 * total energy  :   -20.9166987 Eh     change       -0.2667949E-05 Eh
 * total energy  :   -20.9167002 Eh     change       -0.1434410E-05 Eh
 * total energy  :   -20.9167012 Eh     change       -0.1002196E-05 Eh
 * total energy  :   -20.9167023 Eh     change       -0.1087921E-05 Eh
 * total energy  :   -20.9167026 Eh     change       -0.3818245E-06 Eh
 * total energy  :   -20.9167030 Eh     change       -0.3454156E-06 Eh
 * total energy  :   -20.9167031 Eh     change       -0.1334596E-06 Eh
 * total energy  :   -20.9167031 Eh     change       -0.2307619E-07 Eh
   *** GEOMETRY OPTIMIZATION CONVERGED AFTER 37 ITERATIONS ***

 final structure:
================
15
 xtb: 6.7.0 (08769fc)
C           -3.34498639442769       -0.34128319657863        0.23926432340502
C           -1.93950011749862       -0.10983370236107       -0.01092134569913
C           -0.77958786255975        0.09071496076183       -0.23809003181043
C            0.63756603616581        0.34568094726216       -0.46325415198962
C            1.08494000835688        1.66443520920545        0.16801799521448
C            1.40481078874263       -0.83889083345964        0.07724514005427
O            2.30545280548014       -0.78972861621797        0.86886410850662
H           -3.81957821022940       -0.75524100093651       -0.65013077408868
H           -3.83445353348384        0.59725709767381        0.49819232497717
H           -3.46412587340940       -1.04240075214424        1.06509613814266
H            0.81434409945106        0.36707241269211       -1.54861863098476
H            0.53294793164227        2.49622331933588       -0.26247989235404
H            2.14909084137494        1.81247716265118       -0.00178355043990
H            0.90771248473224        1.64159504165742        1.24108768911635
H            1.04557911756269       -1.80797500914178       -0.32402788855002

          :  Hamiltonian                  GFN2-xTB          :
         :: total energy             -20.916703148255 Eh    ::
         :: gradient norm              0.000095361624 Eh/a0 ::
         :: HOMO-LUMO gap              3.419640793302 eV    ::
         :: SCC energy               -21.274544198225 Eh    ::
         :: -> dispersion             -0.008442559985 Eh    ::
         :: -> Gsolv                  -0.010784656337 Eh    ::
         :: repulsion energy           0.357841049970 Eh    ::

    * Orbital Energies and Occupations

         #    Occupation            Energy/Eh            Energy/eV
      -------------------------------------------------------------
         1        2.0000           -0.7254255             -19.7398
       ...           ...                  ...                  ...
         7        2.0000           -0.5666525             -15.4194
         8        2.0000           -0.5558565             -15.1256
         9        2.0000           -0.5277517             -14.3609
        10        2.0000           -0.5167440             -14.0613
        11        2.0000           -0.4990354             -13.5794
        12        2.0000           -0.4921865             -13.3931
        13        2.0000           -0.4906007             -13.3499
        14        2.0000           -0.4809036             -13.0861
        15        2.0000           -0.4648828             -12.6501
        16        2.0000           -0.4547878             -12.3754
        17        2.0000           -0.4210573             -11.4576
        18        2.0000           -0.4033837             -10.9766
        19        2.0000           -0.3950007             -10.7485 (HOMO)
        20                         -0.2693312              -7.3289 (LUMO)
        21                         -0.1528830              -4.1602
        22                         -0.1490098              -4.0548
        23                          0.0453342               1.2336
        24                          0.0748455               2.0366
        25                          0.1355344               3.6881
        26                          0.1588956               4.3238
        27                          0.1690419               4.5999
        28                          0.1781275               4.8471
        29                          0.2042995               5.5593
        30                          0.2291539               6.2356
       ...                                ...                  ...
        36                          1.4062638              38.2664
      -------------------------------------------------------------
                  HL-Gap            0.1256695 Eh            3.4196 eV

     #   Z          covCN         q      C6AA      α(0)
     1   6 C        3.753    -0.089    22.254     6.727
     2   6 C        1.960    -0.041    32.181     9.161
     3   6 C        1.984    -0.063    32.752     9.242
     4   6 C        3.854    -0.010    20.725     6.475
     5   6 C        3.758    -0.098    22.419     6.751
     6   6 C        2.774     0.222    23.320     7.909
     7   8 O        0.856    -0.341    20.534     6.075
     8   1 H        0.925     0.060     2.194     2.316
     9   1 H        0.925     0.062     2.178     2.308
    10   1 H        0.925     0.060     2.201     2.320
    11   1 H        0.923     0.074     2.044     2.236
    12   1 H        0.925     0.047     2.358     2.401
    13   1 H        0.925     0.049     2.336     2.390
    14   1 H        0.925     0.049     2.329     2.386
    15   1 H        0.922     0.019     2.750     2.593

Wiberg/Mayer (AO) data.
largest (>0.10) Wiberg bond orders for each atom

     #   Z sym  total        # sym  WBO       # sym  WBO       # sym  WBO
 ---------------------------------------------------------------------------
     1   6 C    3.994 --     2 C    1.068     8 H    0.964    10 H    0.963
                             9 H    0.963
     2   6 C    3.979 --     3 C    2.800     1 C    1.068
     3   6 C    3.974 --     2 C    2.800     4 C    1.013
     4   6 C    3.996 --     3 C    1.013     5 C    0.991     6 C    0.978
                            11 H    0.917
     5   6 C    3.993 --     4 C    0.991    12 H    0.987    14 H    0.987
                            13 H    0.984
     6   6 C    3.905 --     7 O    1.917     4 C    0.978    15 H    0.932
     7   8 O    2.088 --     6 C    1.917
     8   1 H    0.996 --     1 C    0.964
     9   1 H    0.995 --     1 C    0.963
    10   1 H    0.996 --     1 C    0.963
    11   1 H    0.995 --     4 C    0.917
    12   1 H    0.998 --     5 C    0.987
    13   1 H    0.997 --     5 C    0.984
    14   1 H    0.998 --     5 C    0.987
    15   1 H    1.000 --     6 C    0.932
 ---------------------------------------------------------------------------

molecular dipole:
                 x           y           z       tot (Debye)
 q only:       -1.097       0.291      -0.591
   full:       -1.191       0.208      -0.717       3.574

           -------------------------------------------------
          | TOTAL ENERGY              -20.916703148255 Eh   |
          | GRADIENT NORM               0.000095361624 Eh/α |
          | HOMO-LUMO GAP               3.419640793302 eV   |
           -------------------------------------------------

 * finished run on 2024/08/07 at 19:48:47.514
