   * xtb version 6.7.0 (08769fc) compiled by 'albert@albert-system' on 2024-03-04

   ID    Z sym.   atoms
    1    6 C      1, 3, 5, 6
    2    7 N      2, 4
    3    8 O      7
    4    1 H      8-15

          program call               : /home/mvotokps/xtb-dist/bin/xtb crest_best.xyz --gfn 2 --alpb toluene --opt vtight -c 0 --iterations 4000
      * Solvation model:               ALPB
        Solvent                        toluene
        Solvent mass                       7.8110E+01 g/mol
          :  Hamiltonian                  GFN2-xTB          :
 * total energy  :   -22.5237965 Eh     change       -0.3600675E-10 Eh
 * total energy  :   -22.5286249 Eh     change       -0.4828408E-02 Eh
 * total energy  :   -22.5299755 Eh     change       -0.1350592E-02 Eh
 * total energy  :   -22.5301307 Eh     change       -0.1551701E-03 Eh
 * total energy  :   -22.5302086 Eh     change       -0.7790866E-04 Eh
 * total energy  :   -22.5302505 Eh     change       -0.4187747E-04 Eh
 * total energy  :   -22.5302886 Eh     change       -0.3811912E-04 Eh
 * total energy  :   -22.5303173 Eh     change       -0.2869410E-04 Eh
 * total energy  :   -22.5303455 Eh     change       -0.2825249E-04 Eh
 * total energy  :   -22.5303760 Eh     change       -0.3051896E-04 Eh
 * total energy  :   -22.5323119 Eh     change       -0.9756143E-06 Eh
 * total energy  :   -22.5323130 Eh     change       -0.1132988E-05 Eh
 * total energy  :   -22.5323135 Eh     change       -0.5454494E-06 Eh
 * total energy  :   -22.5323137 Eh     change       -0.1847968E-06 Eh
 * total energy  :   -22.5323138 Eh     change       -0.1157523E-06 Eh
 * total energy  :   -22.5323140 Eh     change       -0.1498643E-06 Eh
 * total energy  :   -22.5323142 Eh     change       -0.1818621E-06 Eh
 * total energy  :   -22.5323143 Eh     change       -0.1476059E-06 Eh
 * total energy  :   -22.5323144 Eh     change       -0.8581385E-07 Eh
   *** GEOMETRY OPTIMIZATION CONVERGED AFTER 58 ITERATIONS ***

 final structure:
================
15
 xtb: 6.7.0 (08769fc)
C           -2.08068320241660        0.77467252496664       -0.20756718089851
N           -1.40860872681672       -0.49951137066135       -0.10720012392293
C           -0.09965224835819       -0.72628789182203        0.15430161200674
N            0.44016336959883       -1.87199744528484        0.30719833508802
C            0.83442428023528        0.45213669072477        0.30559730047066
C            2.19055085108594        0.22342757819631       -0.28354979583519
O            0.50901428447740        1.46077728154905        0.88882097174683
H           -2.95748849515736        0.65962665612642       -0.84389630938999
H           -1.41912167905868        1.51696713027273       -0.64968428891725
H           -2.39638182437747        1.14116366265362        0.77412356828361
H           -2.01210384543028       -1.31048897661729       -0.06936953353612
H           -0.21268445755574       -2.65272302410547        0.26046099726591
H            2.87364081662004        1.01761419241447        0.00517719525826
H            2.10303794760963        0.18638817265289       -1.36843307122840
H            2.54699396354393       -0.74901307576602        0.04746414660855

          :  Hamiltonian                  GFN2-xTB          :
         :: total energy             -22.532314405593 Eh    ::
         :: gradient norm              0.000041899127 Eh/a0 ::
         :: HOMO-LUMO gap              2.833838363683 eV    ::
         :: SCC energy               -22.814323337290 Eh    ::
         :: -> dispersion             -0.009157935274 Eh    ::
         :: -> Gsolv                  -0.011792882147 Eh    ::
         :: repulsion energy           0.282008931697 Eh    ::

    * Orbital Energies and Occupations

         #    Occupation            Energy/Eh            Energy/eV
      -------------------------------------------------------------
         1        2.0000           -0.7198304             -19.5876
       ...           ...                  ...                  ...
         8        2.0000           -0.5554991             -15.1159
         9        2.0000           -0.5431792             -14.7807
        10        2.0000           -0.5330455             -14.5049
        11        2.0000           -0.5300147             -14.4224
        12        2.0000           -0.5188241             -14.1179
        13        2.0000           -0.4951583             -13.4739
        14        2.0000           -0.4815993             -13.1050
        15        2.0000           -0.4739655             -12.8973
        16        2.0000           -0.4716352             -12.8338
        17        2.0000           -0.4657736             -12.6743
        18        2.0000           -0.4078144             -11.0972
        19        2.0000           -0.3844863             -10.4624
        20        2.0000           -0.3800876             -10.3427 (HOMO)
        21                         -0.2759460              -7.5089 (LUMO)
        22                         -0.1805517              -4.9131
        23                         -0.0002631              -0.0072
        24                          0.0608121               1.6548
        25                          0.1229715               3.3462
        26                          0.1383743               3.7654
        27                          0.1594983               4.3402
        28                          0.1720830               4.6826
        29                          0.1891119               5.1460
        30                          0.2021982               5.5021
        31                          0.2201020               5.9893
       ...                                ...                  ...
        36                          0.6601758              17.9643
      -------------------------------------------------------------
                  HL-Gap            0.1041416 Eh            2.8338 eV

     #   Z          covCN         q      C6AA      α(0)
     1   6 C        3.684    -0.039    21.473     6.635
     2   7 N        2.686    -0.165    24.579     7.363
     3   6 C        2.804     0.144    24.852     8.167
     4   7 N        1.788    -0.396    31.206     8.274
     5   6 C        2.822     0.241    22.982     7.855
     6   6 C        3.755    -0.144    23.342     6.889
     7   8 O        0.857    -0.369    21.066     6.154
     8   1 H        0.925     0.057     2.232     2.337
     9   1 H        0.925     0.062     2.177     2.307
    10   1 H        0.924     0.055     2.259     2.350
    11   1 H        0.860     0.172     1.260     1.758
    12   1 H        0.860     0.127     1.572     1.964
    13   1 H        0.925     0.072     2.066     2.248
    14   1 H        0.925     0.082     1.959     2.189
    15   1 H        0.925     0.102     1.770     2.081

Wiberg/Mayer (AO) data.
largest (>0.10) Wiberg bond orders for each atom

     #   Z sym  total        # sym  WBO       # sym  WBO       # sym  WBO
 ---------------------------------------------------------------------------
     1   6 C    3.969 --     2 N    1.007     8 H    0.982     9 H    0.979
                            10 H    0.973
     2   7 N    3.429 --     3 C    1.232     1 C    1.007    11 H    0.937
                             4 N    0.219
     3   6 C    3.970 --     4 N    1.693     2 N    1.232     5 C    0.953
     4   7 N    2.972 --     3 C    1.693    12 H    0.950     2 N    0.219
     5   6 C    3.912 --     7 O    1.843     6 C    1.023     3 C    0.953
     6   6 C    3.991 --     5 C    1.023    13 H    0.981    15 H    0.949
                            14 H    0.948
     7   8 O    2.064 --     5 C    1.843
     8   1 H    0.997 --     1 C    0.982
     9   1 H    0.996 --     1 C    0.979
    10   1 H    0.997 --     1 C    0.973
    11   1 H    0.970 --     2 N    0.937
    12   1 H    0.984 --     4 N    0.950
    13   1 H    0.994 --     6 C    0.981
    14   1 H    0.993 --     6 C    0.948
    15   1 H    0.990 --     6 C    0.949
 ---------------------------------------------------------------------------

molecular dipole:
                 x           y           z       tot (Debye)
 q only:       -0.573      -0.241      -0.791
   full:       -1.003      -0.377      -0.872       3.512

           -------------------------------------------------
          | TOTAL ENERGY              -22.532314405593 Eh   |
          | GRADIENT NORM               0.000041899127 Eh/α |
          | HOMO-LUMO GAP               2.833838363683 eV   |
           -------------------------------------------------

 * finished run on 2024/08/07 at 20:05:30.309
