   * xtb version 6.7.0 (08769fc) compiled by 'albert@albert-system' on 2024-03-04

   ID    Z sym.   atoms
    1    8 O      1
    2    6 C      2-4, 6
    3    7 N      5, 7
    4    1 H      8, 9

          program call               : /home/mvotokps/xtb-dist/bin/xtb crest_best.xyz --gfn 2 --alpb toluene --opt vtight -c 0 --iterations 4000
      * Solvation model:               ALPB
        Solvent                        toluene
        Solvent mass                       7.8110E+01 g/mol
          :  Hamiltonian                  GFN2-xTB          :
 * total energy  :   -19.3763370 Eh     change       -0.5514877E-10 Eh
 * total energy  :   -19.3805554 Eh     change       -0.4218373E-02 Eh
 * total energy  :   -19.3813503 Eh     change       -0.7949066E-03 Eh
 * total energy  :   -19.3814940 Eh     change       -0.1437079E-03 Eh
 * total energy  :   -19.3816284 Eh     change       -0.1343392E-03 Eh
 * total energy  :   -19.3816921 Eh     change       -0.6375041E-04 Eh
 * total energy  :   -19.3817857 Eh     change       -0.9358076E-04 Eh
 * total energy  :   -19.3818287 Eh     change       -0.4304198E-04 Eh
 * total energy  :   -19.3819526 Eh     change       -0.1238546E-03 Eh
 * total energy  :   -19.3820324 Eh     change       -0.7984945E-04 Eh
 * total energy  :   -19.3824980 Eh     change       -0.4431185E-06 Eh
 * total energy  :   -19.3824996 Eh     change       -0.1645488E-05 Eh
 * total energy  :   -19.3824995 Eh     change        0.1490888E-06 Eh
 * total energy  :   -19.3825009 Eh     change       -0.1420257E-05 Eh
 * total energy  :   -19.3825014 Eh     change       -0.5147466E-06 Eh
 * total energy  :   -19.3825023 Eh     change       -0.8823528E-06 Eh
 * total energy  :   -19.3825032 Eh     change       -0.8603077E-06 Eh
 * total energy  :   -19.3825033 Eh     change       -0.1598212E-06 Eh
 * total energy  :   -19.3825034 Eh     change       -0.2482913E-07 Eh
   *** GEOMETRY OPTIMIZATION CONVERGED AFTER 33 ITERATIONS ***

 final structure:
================
9
 xtb: 6.7.0 (08769fc)
O           -1.85383037817065        1.57087744140343       -0.23223636371407
C           -0.99762923829709        0.94604534254961        0.30971966917535
C            0.01738944207943        0.07489266765385       -0.44917414044941
C           -0.10627734421085       -1.29992980556638       -0.00415743064731
N           -0.21273095941424       -2.37884356820869        0.35109576302139
C            1.35871491667780        0.55055125311157       -0.16993002903414
N            2.40940451843855        0.93434171811693        0.05447000436371
H           -0.85178648542219        0.93234028729228        1.40232984331834
H           -0.17604928938077        0.13095958664741       -1.53010756923388

          :  Hamiltonian                  GFN2-xTB          :
         :: total energy             -19.382503358652 Eh    ::
         :: gradient norm              0.000047794520 Eh/a0 ::
         :: HOMO-LUMO gap              3.675412059444 eV    ::
         :: SCC energy               -19.723489516908 Eh    ::
         :: -> dispersion             -0.005773808392 Eh    ::
         :: -> Gsolv                  -0.011158680988 Eh    ::
         :: repulsion energy           0.340986158256 Eh    ::

    * Orbital Energies and Occupations

         #    Occupation            Energy/Eh            Energy/eV
      -------------------------------------------------------------
         1        2.0000           -0.7763723             -21.1262
       ...           ...                  ...                  ...
         5        2.0000           -0.6592638             -17.9395
         6        2.0000           -0.6279430             -17.0872
         7        2.0000           -0.6247353             -16.9999
         8        2.0000           -0.5944357             -16.1754
         9        2.0000           -0.5809710             -15.8090
        10        2.0000           -0.5688665             -15.4796
        11        2.0000           -0.5289350             -14.3931
        12        2.0000           -0.5269350             -14.3386
        13        2.0000           -0.5210858             -14.1795
        14        2.0000           -0.5133387             -13.9687
        15        2.0000           -0.4740149             -12.8986
        16        2.0000           -0.4671160             -12.7109
        17        2.0000           -0.4563385             -12.4176 (HOMO)
        18                         -0.3212696              -8.7422 (LUMO)
        19                         -0.2661670              -7.2428
        20                         -0.2524933              -6.8707
        21                         -0.2454323              -6.6786
        22                         -0.2300264              -6.2593
        23                          0.0335156               0.9120
        24                          0.0745227               2.0279
        25                          0.1178657               3.2073
        26                          0.1380908               3.7576
        27                          0.1881011               5.1185
        28                          0.5840792              15.8936
       ...                                ...                  ...
        30                          1.1255104              30.6267
      -------------------------------------------------------------
                  HL-Gap            0.1350689 Eh            3.6754 eV

     #   Z          covCN         q      C6AA      α(0)
     1   8 O        0.856    -0.279    19.405     5.906
     2   6 C        2.772     0.235    23.082     7.869
     3   6 C        3.856    -0.013    20.773     6.482
     4   6 C        1.925     0.133    27.852     8.523
     5   7 N        0.911    -0.195    25.230     7.265
     6   6 C        1.925     0.133    27.853     8.523
     7   7 N        0.911    -0.195    25.230     7.265
     8   1 H        0.923     0.056     2.243     2.342
     9   1 H        0.923     0.125     1.573     1.961

Wiberg/Mayer (AO) data.
largest (>0.10) Wiberg bond orders for each atom

     #   Z sym  total        # sym  WBO       # sym  WBO       # sym  WBO
 ---------------------------------------------------------------------------
     1   8 O    2.153 --     2 C    1.972
     2   6 C    3.912 --     1 O    1.972     8 H    0.933     3 C    0.913
     3   6 C    3.994 --     6 C    0.999     4 C    0.999     2 C    0.913
                             9 H    0.905
     4   6 C    3.950 --     5 N    2.863     3 C    0.999
     5   7 N    3.038 --     4 C    2.863
     6   6 C    3.950 --     7 N    2.863     3 C    0.999
     7   7 N    3.038 --     6 C    2.863
     8   1 H    0.997 --     2 C    0.933
     9   1 H    0.984 --     3 C    0.905
 ---------------------------------------------------------------------------

molecular dipole:
                 x           y           z       tot (Debye)
 q only:       -0.093       0.064      -0.134
   full:       -0.364       0.265      -0.282       1.350

           -------------------------------------------------
          | TOTAL ENERGY              -19.382503358652 Eh   |
          | GRADIENT NORM               0.000047794520 Eh/α |
          | HOMO-LUMO GAP               3.675412059444 eV   |
           -------------------------------------------------

 * finished run on 2024/08/07 at 20:23:00.782
