   * xtb version 6.7.0 (08769fc) compiled by 'albert@albert-system' on 2024-03-04

   ID    Z sym.   atoms
    1    6 C      1-3, 5, 6
    2    7 N      4
    3    8 O      7
    4    1 H      8-16

          program call               : /home/mvotokps/xtb-dist/bin/xtb crest_best.xyz --gfn 2 --alpb toluene --opt vtight -c 0 --iterations 4000
      * Solvation model:               ALPB
        Solvent                        toluene
        Solvent mass                       7.8110E+01 g/mol
          :  Hamiltonian                  GFN2-xTB          :
 * total energy  :   -22.2281384 Eh     change       -0.1102762E-10 Eh
 * total energy  :   -22.2341268 Eh     change       -0.5988447E-02 Eh
 * total energy  :   -22.2356304 Eh     change       -0.1503606E-02 Eh
 * total energy  :   -22.2359990 Eh     change       -0.3685062E-03 Eh
 * total energy  :   -22.2361562 Eh     change       -0.1572083E-03 Eh
 * total energy  :   -22.2362039 Eh     change       -0.4771936E-04 Eh
 * total energy  :   -22.2362671 Eh     change       -0.6317653E-04 Eh
 * total energy  :   -22.2363290 Eh     change       -0.6191768E-04 Eh
 * total energy  :   -22.2363849 Eh     change       -0.5592473E-04 Eh
 * total energy  :   -22.2364826 Eh     change       -0.9769955E-04 Eh
 * total energy  :   -22.2378916 Eh     change       -0.1392808E-04 Eh
 * total energy  :   -22.2379016 Eh     change       -0.1005260E-04 Eh
 * total energy  :   -22.2378934 Eh     change        0.8231080E-05 Eh
 * total energy  :   -22.2379072 Eh     change       -0.1383113E-04 Eh
 * total energy  :   -22.2379105 Eh     change       -0.3295881E-05 Eh
 * total energy  :   -22.2379118 Eh     change       -0.1314120E-05 Eh
 * total energy  :   -22.2379146 Eh     change       -0.2757271E-05 Eh
 * total energy  :   -22.2379152 Eh     change       -0.5990673E-06 Eh
 * total energy  :   -22.2379152 Eh     change       -0.6270162E-07 Eh
   *** GEOMETRY OPTIMIZATION CONVERGED AFTER 36 ITERATIONS ***

 final structure:
================
16
 xtb: 6.7.0 (08769fc)
C           -1.23624291850519       -1.49217260217077        0.40547547608280
C           -1.55483695158484       -0.07035725677109        0.01214852342517
C           -0.93423886420210        0.55674039487479       -1.17973222269866
N           -0.61087498933109        1.01289319444790        0.15146536042362
C            0.68087050768438        0.88971358255616        0.77615497504591
C            1.78706954473398        0.03823628774148        0.20915467691221
O            1.74886250591721       -0.73870951117363       -0.70820442217651
H           -1.24510777662172       -1.59865765469391        1.49024320807757
H           -0.26400309738562       -1.79827566337956        0.02826172813129
H           -1.98976857307415       -2.15945413512092       -0.00850285089018
H           -2.56665196603269        0.23572132104999        0.26826590709158
H           -1.49815341328774        1.26781755356934       -1.77096188538392
H           -0.20841270071716       -0.01693280799772       -1.74041813021844
H            0.53033247970736        0.55550670320482        1.81142466429107
H            1.09797964316896        1.90567510033840        0.83963957940318
H            2.74102400963042        0.21783424372473        0.74922331168338

          :  Hamiltonian                  GFN2-xTB          :
         :: total energy             -22.237915245705 Eh    ::
         :: gradient norm              0.000064263806 Eh/a0 ::
         :: HOMO-LUMO gap              2.409903791014 eV    ::
         :: SCC energy               -22.511368359483 Eh    ::
         :: -> dispersion             -0.010280297661 Eh    ::
         :: -> Gsolv                  -0.010438796558 Eh    ::
         :: repulsion energy           0.273453113778 Eh    ::

    * Orbital Energies and Occupations

         #    Occupation            Energy/Eh            Energy/eV
      -------------------------------------------------------------
         1        2.0000           -0.7310956             -19.8941
       ...           ...                  ...                  ...
         8        2.0000           -0.5663182             -15.4103
         9        2.0000           -0.5568649             -15.1531
        10        2.0000           -0.5330040             -14.5038
        11        2.0000           -0.5255007             -14.2996
        12        2.0000           -0.5109087             -13.9025
        13        2.0000           -0.4993255             -13.5873
        14        2.0000           -0.4837557             -13.1637
        15        2.0000           -0.4692443             -12.7688
        16        2.0000           -0.4576952             -12.4545
        17        2.0000           -0.4380807             -11.9208
        18        2.0000           -0.4338457             -11.8055
        19        2.0000           -0.4158253             -11.3152
        20        2.0000           -0.3608315              -9.8187 (HOMO)
        21                         -0.2722691              -7.4088 (LUMO)
        22                         -0.0706441              -1.9223
        23                          0.0139761               0.3803
        24                          0.0636952               1.7332
        25                          0.0936941               2.5495
        26                          0.1348903               3.6706
        27                          0.1431068               3.8941
        28                          0.1585629               4.3147
        29                          0.1827294               4.9723
        30                          0.1880386               5.1168
        31                          0.2067693               5.6265
       ...                                ...                  ...
        37                          0.6066016              16.5065
      -------------------------------------------------------------
                  HL-Gap            0.0885623 Eh            2.4099 eV

     #   Z          covCN         q      C6AA      α(0)
     1   6 C        3.751    -0.110    22.671     6.790
     2   6 C        3.788     0.042    19.878     6.350
     3   6 C        3.738    -0.007    20.774     6.504
     4   7 N        2.724    -0.199    25.320     7.473
     5   6 C        3.734    -0.011    20.854     6.517
     6   6 C        2.754     0.211    23.525     7.942
     7   8 O        0.856    -0.348    20.675     6.096
     8   1 H        0.925     0.038     2.480     2.463
     9   1 H        0.925     0.051     2.308     2.376
    10   1 H        0.925     0.042     2.424     2.435
    11   1 H        0.925     0.035     2.514     2.479
    12   1 H        0.925     0.037     2.495     2.470
    13   1 H        0.925     0.042     2.419     2.432
    14   1 H        0.923     0.081     1.967     2.193
    15   1 H        0.923     0.078     2.002     2.213
    16   1 H        0.921     0.018     2.767     2.601

Wiberg/Mayer (AO) data.
largest (>0.10) Wiberg bond orders for each atom

     #   Z sym  total        # sym  WBO       # sym  WBO       # sym  WBO
 ---------------------------------------------------------------------------
     1   6 C    3.996 --     2 C    1.015    10 H    0.982     9 H    0.981
                             8 H    0.981
     2   6 C    3.937 --     1 C    1.015     3 C    0.974    11 H    0.966
                             4 N    0.955
     3   6 C    3.933 --    12 H    0.975     2 C    0.974    13 H    0.970
                             4 N    0.963
     4   7 N    3.056 --     5 C    1.024     3 C    0.963     2 C    0.955
     5   6 C    3.991 --     4 N    1.024     6 C    1.005    15 H    0.933
                            14 H    0.927
     6   6 C    3.910 --     7 O    1.893     5 C    1.005    16 H    0.930
     7   8 O    2.085 --     6 C    1.893
     8   1 H    0.999 --     1 C    0.981
     9   1 H    0.997 --     1 C    0.981
    10   1 H    0.998 --     1 C    0.982
    11   1 H    0.999 --     2 C    0.966
    12   1 H    0.999 --     3 C    0.975
    13   1 H    0.998 --     3 C    0.970
    14   1 H    0.993 --     5 C    0.927
    15   1 H    0.994 --     5 C    0.933
    16   1 H    0.999 --     6 C    0.930
 ---------------------------------------------------------------------------

molecular dipole:
                 x           y           z       tot (Debye)
 q only:       -0.304       0.418       0.699
   full:       -0.054       0.288       0.800       2.166

           -------------------------------------------------
          | TOTAL ENERGY              -22.237915245705 Eh   |
          | GRADIENT NORM               0.000064263806 Eh/α |
          | HOMO-LUMO GAP               2.409903791014 eV   |
           -------------------------------------------------

 * finished run on 2024/08/07 at 20:16:31.119
